 -4.000000000000000E-002    0.000000000000000E+000
 -3.990000000000000E-002    0.000000000000000E+000
 -3.980000000000000E-002    0.000000000000000E+000
 -3.970000000000000E-002    0.000000000000000E+000
 -3.960000000000000E-002    0.000000000000000E+000
 -3.950000000000000E-002    0.000000000000000E+000
 -3.940000000000000E-002    0.000000000000000E+000
 -3.930000000000000E-002    0.000000000000000E+000
 -3.920000000000000E-002    0.000000000000000E+000
 -3.910000000000000E-002    0.000000000000000E+000
 -3.900000000000000E-002    0.000000000000000E+000
 -3.890000000000000E-002    0.000000000000000E+000
 -3.880000000000000E-002    0.000000000000000E+000
 -3.870000000000000E-002    0.000000000000000E+000
 -3.860000000000000E-002    0.000000000000000E+000
 -3.850000000000000E-002    2.565854121688508E-047
 -3.840000000000000E-002    2.597081706842172E-045
 -3.830000000000000E-002    3.980415873871582E-044
 -3.820000000000000E-002    4.103993198439142E-043
 -3.810000000000000E-002    3.236544830621104E-042
 -3.800000000000000E-002    2.090190157420232E-041
 -3.790000000000000E-002    1.148707719613961E-040
 -3.780000000000000E-002    5.517869210021488E-040
 -3.770000000000000E-002    2.361835770556686E-039
 -3.760000000000000E-002    9.138965720805650E-039
 -3.750000000000000E-002    3.232161086927251E-038
 -3.740000000000000E-002    1.053763244301896E-037
 -3.730000000000000E-002    3.188077385567094E-037
 -3.720000000000000E-002    8.996296886263573E-037
 -3.710000000000000E-002    2.376741147647919E-036
 -3.700000000000000E-002    5.893469631502253E-036
 -3.690000000000000E-002    1.373241925790002E-035
 -3.680000000000000E-002    3.005713934801385E-035
 -3.670000000000000E-002    6.164403951206836E-035
 -3.660000000000000E-002    1.177776510276080E-034
 -3.650000000000000E-002    2.071881963067885E-034
 -3.640000000000000E-002    3.274708006512333E-034
 -3.630000000000000E-002    4.383471050814947E-034
 -3.620000000000000E-002    4.041490989096710E-034
 -3.610000000000000E-002   -1.164409283244005E-034
 -3.600000000000000E-002   -1.861710717412452E-033
 -3.590000000000000E-002   -6.267256123978208E-033
 -3.580000000000000E-002   -1.588522243333894E-032
 -3.570000000000000E-002   -3.487839652190355E-032
 -3.560000000000000E-002   -6.942925894363954E-032
 -3.550000000000000E-002   -1.276947870348248E-031
 -3.540000000000000E-002   -2.186061398795977E-031
 -3.530000000000000E-002   -3.483492687168432E-031
 -3.520000000000000E-002   -5.128094109506296E-031
 -3.510000000000000E-002   -6.837546314451464E-031
 -3.500000000000000E-002   -7.863555894093842E-031
 -3.490000000000000E-002   -6.662809108340528E-031
 -3.480000000000000E-002   -4.679880572365228E-032
 -3.470000000000000E-002    1.518999521067985E-030
 -3.460000000000000E-002    4.687537433424805E-030
 -3.450000000000000E-002    1.032982025846340E-029
 -3.440000000000000E-002    1.945953170264431E-029
 -3.430000000000000E-002    3.302175733847690E-029
 -3.420000000000000E-002    5.146147994384123E-029
 -3.410000000000000E-002    7.398147086982459E-029
 -3.400000000000000E-002    9.741090472926643E-029
 -3.390000000000000E-002    1.146557886570306E-028
 -3.380000000000000E-002    1.128103901110484E-028
 -3.370000000000000E-002    7.119556179609124E-029
 -3.360000000000000E-002   -4.013092326640119E-029
 -3.350000000000000E-002   -2.604775020738590E-028
 -3.340000000000000E-002   -6.358929995305165E-028
 -3.330000000000000E-002   -1.212057759191031E-027
 -3.320000000000000E-002   -2.020677068956703E-027
 -3.310000000000000E-002   -3.057451677684478E-027
 -3.300000000000000E-002   -4.250400591562831E-027
 -3.290000000000000E-002   -5.418926152171578E-027
 -3.280000000000000E-002   -6.226817924940377E-027
 -3.270000000000000E-002   -6.136577629535980E-027
 -3.260000000000000E-002   -4.377961535980186E-027
 -3.250000000000000E-002    4.994573137857084E-029
 -3.240000000000000E-002    8.317448695707865E-027
 -3.230000000000000E-002    2.161341197620400E-026
 -3.220000000000000E-002    4.087393179966462E-026
 -3.210000000000000E-002    6.636598332351671E-026
 -3.200000000000000E-002    9.711832126132135E-026
 -3.190000000000000E-002    1.302221567491102E-025
 -3.180000000000000E-002    1.600696922163104E-025
 -3.170000000000000E-002    1.776591545482418E-025
 -3.160000000000000E-002    1.701664387315054E-025
 -3.150000000000000E-002    1.210563759381465E-025
 -3.140000000000000E-002    1.106661357630531E-026
 -3.130000000000000E-002   -1.795785332645001E-025
 -3.120000000000000E-002   -4.674037164012263E-025
 -3.110000000000000E-002   -8.601752368033748E-025
 -3.100000000000000E-002   -1.349704167228759E-024
 -3.090000000000000E-002   -1.903394389658881E-024
 -3.080000000000000E-002   -2.455484370153210E-024
 -3.070000000000000E-002   -2.899552453015935E-024
 -3.060000000000000E-002   -3.084506798423654E-024
 -3.050000000000000E-002   -2.816863400306238E-024
 -3.040000000000000E-002   -1.872457653834307E-024
 -3.030000000000000E-002   -2.064704246376426E-026
 -3.020000000000000E-002    2.936662435959149E-024
 -3.010000000000000E-002    7.110406820819460E-024
 -3.000000000000000E-002    1.245595204261941E-023
 -2.990000000000000E-002    1.869618942722556E-023
 -2.980000000000000E-002    2.524578412968206E-023
 -2.970000000000000E-002    3.115098180180029E-023
 -2.960000000000000E-002    3.506380578684722E-023
 -2.950000000000000E-002    3.527271118575138E-023
 -2.940000000000000E-002    2.981242691672199E-023
 -2.930000000000000E-002    1.667274648101725E-023
 -2.920000000000000E-002   -5.882111493202302E-024
 -2.910000000000000E-002   -3.888587842923790E-023
 -2.900000000000000E-002   -8.215673353060170E-023
 -2.890000000000000E-002   -1.337457515670367E-022
 -2.880000000000000E-002   -1.894238021247039E-022
 -2.870000000000000E-002   -2.423115829252634E-022
 -2.860000000000000E-002   -2.827803441567528E-022
 -2.850000000000000E-002   -2.987616538426128E-022
 -2.840000000000000E-002   -2.765963210164852E-022
 -2.830000000000000E-002   -2.025191254694991E-022
 -2.820000000000000E-002   -6.481068450516930E-023
 -2.810000000000000E-002    1.434490162790340E-022
 -2.800000000000000E-002    4.212190396811963E-022
 -2.790000000000000E-002    7.562692688970887E-022
 -2.780000000000000E-002    1.122379840945031E-021
 -2.770000000000000E-002    1.477595533288706E-021
 -2.760000000000000E-002    1.764246603494278E-021
 -2.750000000000000E-002    1.911447867639383E-021
 -2.740000000000000E-002    1.840673270393349E-021
 -2.730000000000000E-002    1.474746482870692E-021
 -2.720000000000000E-002    7.501752242837016E-022
 -2.710000000000000E-002   -3.678022284749121E-022
 -2.700000000000000E-002   -1.868762083520930E-021
 -2.690000000000000E-002   -3.681255670164683E-021
 -2.680000000000000E-002   -5.660275586462519E-021
 -2.670000000000000E-002   -7.581212083610912E-021
 -2.660000000000000E-002   -9.143648888180918E-021
 -2.650000000000000E-002   -9.988058251215561E-021
 -2.640000000000000E-002   -9.727572860277117E-021
 -2.630000000000000E-002   -7.995473802462880E-021
 -2.620000000000000E-002   -4.506849403018169E-021
 -2.610000000000000E-002    8.698432628301695E-022
 -2.600000000000000E-002    8.038607872963483E-021
 -2.590000000000000E-002    1.660937615920858E-020
 -2.580000000000000E-002    2.585176586162115E-020
 -2.570000000000000E-002    3.468310400281140E-020
 -2.560000000000000E-002    4.170430327886921E-020
 -2.550000000000000E-002    4.529461907516637E-020
 -2.540000000000000E-002    4.377123959858232E-020
 -2.530000000000000E-002    3.561197894454676E-020
 -2.520000000000000E-002    1.972936462529478E-020
 -2.510000000000000E-002   -4.227067279622011E-021
 -2.500000000000000E-002   -3.557521558439971E-020
 -2.490000000000000E-002   -7.235697144533702E-020
 -2.480000000000000E-002   -1.111993069069792E-019
 -2.470000000000000E-002   -1.473337687585175E-019
 -2.460000000000000E-002   -1.748224813197685E-019
 -2.450000000000000E-002   -1.870238147302718E-019
 -2.440000000000000E-002   -1.773066499688598E-019
 -2.430000000000000E-002   -1.399891599149446E-019
 -2.420000000000000E-002   -7.143795889141909E-020
 -2.410000000000000E-002    2.877898845144066E-020
 -2.400000000000000E-002    1.568327517364980E-019
 -2.390000000000000E-002    3.038455746284859E-019
 -2.380000000000000E-002    4.555682720179103E-019
 -2.370000000000000E-002    5.927085062596969E-019
 -2.360000000000000E-002    6.920590011944754E-019
 -2.350000000000000E-002    7.285061772541638E-019
 -2.340000000000000E-002    6.778996883734809E-019
 -2.330000000000000E-002    5.206376791196711E-019
 -2.320000000000000E-002    2.456812320705972E-019
 -2.310000000000000E-002   -1.454311243440941E-019
 -2.300000000000000E-002   -6.351187912811104E-019
 -2.290000000000000E-002   -1.187475067531829E-018
 -2.280000000000000E-002   -1.747808050916850E-018
 -2.270000000000000E-002   -2.244581206321618E-018
 -2.260000000000000E-002   -2.594159280405522E-018
 -2.250000000000000E-002   -2.708494061234607E-018
 -2.240000000000000E-002   -2.505524378059820E-018
 -2.230000000000000E-002   -1.921635986723258E-018
 -2.220000000000000E-002   -9.250726334595686E-019
 -2.210000000000000E-002    4.712282692671645E-019
 -2.200000000000000E-002    2.199234177624491E-018
 -2.190000000000000E-002    4.129864160219261E-018
 -2.180000000000000E-002    6.073434734952875E-018
 -2.170000000000000E-002    7.788105352256520E-018
 -2.160000000000000E-002    8.997281232526623E-018
 -2.150000000000000E-002    9.415984878091071E-018
 -2.140000000000000E-002    8.785037248834826E-018
 -2.130000000000000E-002    6.910579338909653E-018
 -2.120000000000000E-002    3.705138552607648E-018
 -2.110000000000000E-002   -7.746693918898740E-019
 -2.100000000000000E-002   -6.299495299090947E-018
 -2.090000000000000E-002   -1.245354284971218E-017
 -2.080000000000000E-002   -1.864116129029778E-017
 -2.070000000000000E-002   -2.411776177541225E-017
 -2.060000000000000E-002   -2.804691025647599E-017
 -2.050000000000000E-002   -2.958250072268850E-017
 -2.040000000000000E-002   -2.797146082220592E-017
 -2.030000000000000E-002   -2.266875025416181E-017
 -2.020000000000000E-002   -1.345295184559390E-017
 -2.010000000000000E-002   -5.280103182819532E-019
 -2.000000000000000E-002    1.540483374739894E-017
 -1.990000000000000E-002    3.312066786626786E-017
 -1.980000000000000E-002    5.090361547361081E-017
 -1.970000000000000E-002    6.664765406141148E-017
 -1.960000000000000E-002    7.802798637742361E-017
 -1.950000000000000E-002    8.273703114579478E-017
 -1.940000000000000E-002    7.876978220882106E-017
 -1.930000000000000E-002    6.473366763096972E-017
 -1.920000000000000E-002    4.014976477015825E-017
 -1.910000000000000E-002    5.706215660087040E-018
 -1.900000000000000E-002   -3.657765081203727E-017
 -1.890000000000000E-002   -8.331553753952369E-017
 -1.880000000000000E-002   -1.298779876758296E-016
 -1.870000000000000E-002   -1.706937562491288E-016
 -1.860000000000000E-002   -1.997283599733528E-016
 -1.850000000000000E-002   -2.111176124599387E-016
 -1.840000000000000E-002   -1.999100314938191E-016
 -1.830000000000000E-002   -1.628496472514388E-016
 -1.820000000000000E-002   -9.911175849358345E-017
 -1.810000000000000E-002   -1.089262796639569E-017
 -1.800000000000000E-002    9.624764067152048E-017
 -1.790000000000000E-002    2.133795315381880E-016
 -1.780000000000000E-002    3.286029930477003E-016
 -1.770000000000000E-002    4.278814725835153E-016
 -1.760000000000000E-002    4.962955115968436E-016
 -1.750000000000000E-002    5.196458017267062E-016
 -1.740000000000000E-002    4.862803850112950E-016
 -1.730000000000000E-002    3.889698594038443E-016
 -1.720000000000000E-002    2.266153770567119E-016
 -1.710000000000000E-002    5.554109163317372E-018
 -1.700000000000000E-002   -2.597689226878790E-016
 -1.690000000000000E-002   -5.469601675768471E-016
 -1.680000000000000E-002   -8.268033326744435E-016
 -1.670000000000000E-002   -1.065395872760700E-015
 -1.660000000000000E-002   -1.227228835235237E-015
 -1.650000000000000E-002   -1.279019022957191E-015
 -1.640000000000000E-002   -1.193979015732519E-015
 -1.630000000000000E-002   -9.561028239545859E-016
 -1.620000000000000E-002   -5.639700625963456E-016
 -1.610000000000000E-002   -3.353953436769055E-017
 -1.600000000000000E-002    6.005691230132851E-016
 -1.590000000000000E-002    1.285718107739124E-015
 -1.580000000000000E-002    1.954075764880631E-015
 -1.570000000000000E-002    2.527671302539309E-015
 -1.560000000000000E-002    2.925477245786305E-015
 -1.550000000000000E-002    3.072049270646100E-015
 -1.540000000000000E-002    2.906993273103741E-015
 -1.530000000000000E-002    2.394316325540193E-015
 -1.520000000000000E-002    1.530576161669418E-015
 -1.510000000000000E-002    3.507030767856076E-016
 -1.500000000000000E-002   -1.069543421210165E-015
 -1.490000000000000E-002   -2.615305518161484E-015
 -1.480000000000000E-002   -4.139020856871171E-015
 -1.470000000000000E-002   -5.471498857731543E-015
 -1.460000000000000E-002   -6.437173111122738E-015
 -1.450000000000000E-002   -6.872470365152676E-015
 -1.440000000000000E-002   -6.645722668556013E-015
 -1.430000000000000E-002   -5.676634657851948E-015
 -1.420000000000000E-002   -3.953064344347393E-015
 -1.410000000000000E-002   -1.542845957740500E-015
 -1.400000000000000E-002    1.401413704877581E-015
 -1.390000000000000E-002    4.646142472772350E-015
 -1.380000000000000E-002    7.890074181621676E-015
 -1.370000000000000E-002    1.078691468792887E-014
 -1.360000000000000E-002    1.297627243435804E-014
 -1.350000000000000E-002    1.412066714168485E-014
 -1.340000000000000E-002    1.394541313455629E-014
 -1.330000000000000E-002    1.227742962226527E-014
 -1.320000000000000E-002    9.078572383128317E-015
 -1.310000000000000E-002    4.469073620940608E-015
 -1.300000000000000E-002   -1.262858804686279E-015
 -1.290000000000000E-002   -7.668259366597450E-015
 -1.280000000000000E-002   -1.416299956224111E-014
 -1.270000000000000E-002   -2.007150964069806E-014
 -1.260000000000000E-002   -2.468640620150237E-014
 -1.250000000000000E-002   -2.733974001870480E-014
 -1.240000000000000E-002   -2.747976145665001E-014
 -1.230000000000000E-002   -2.474571092281616E-014
 -1.220000000000000E-002   -1.903230635803962E-014
 -1.210000000000000E-002   -1.053566178348375E-014
 -1.200000000000000E-002    2.267545636069118E-016
 -1.190000000000000E-002    1.242769005152248E-014
 -1.180000000000000E-002    2.497612730479741E-014
 -1.170000000000000E-002    3.659738158239699E-014
 -1.160000000000000E-002    4.594321479459066E-014
 -1.150000000000000E-002    5.172423824208011E-014
 -1.140000000000000E-002    5.285345808432789E-014
 -1.130000000000000E-002    4.858730519822005E-014
 -1.120000000000000E-002    3.864894260271516E-014
 -1.110000000000000E-002    2.331865740869307E-014
 -1.100000000000000E-002    3.477639686802294E-015
 -1.090000000000000E-002   -1.940535330815122E-014
 -1.080000000000000E-002   -4.335032733329157E-014
 -1.070000000000000E-002   -6.600538235291726E-014
 -1.060000000000000E-002   -8.484253838057917E-014
 -1.050000000000000E-002   -9.739688036331224E-014
 -1.040000000000000E-002   -1.015297032389041E-013
 -1.030000000000000E-002   -9.569154116238434E-014
 -1.020000000000000E-002   -7.915795771280945E-014
 -1.010000000000000E-002   -5.221046745247650E-014
 -1.000000000000000E-002   -1.623722893297474E-014
 -9.899999999999999E-003    2.626679183119882E-014
 -9.800000000000000E-003    7.181268716741375E-014
 -9.699999999999999E-003    1.161460100413723E-013
 -9.599999999999999E-003    1.545817866494242E-013
 -9.500000000000000E-003    1.824253387568960E-013
 -9.399999999999999E-003    1.954469478635365E-013
 -9.299999999999999E-003    1.903689541770145E-013
 -9.200000000000000E-003    1.653177675818475E-013
 -9.099999999999999E-003    1.201909456228527E-013
 -8.999999999999999E-003    5.689199898378470E-014
 -8.900000000000000E-003   -2.060683977837956E-014
 -8.799999999999999E-003   -1.064013123389193E-013
 -8.699999999999999E-003   -1.930020878501003E-013
 -8.600000000000000E-003   -2.718830018144556E-013
 -8.499999999999999E-003   -3.342006434865052E-013
 -8.399999999999999E-003   -3.716344661979821E-013
 -8.300000000000000E-003   -3.772785068013955E-013
 -8.199999999999999E-003   -3.465026383800896E-013
 -8.100000000000000E-003   -2.776936132906477E-013
 -8.000000000000000E-003   -1.727881658461453E-013
 -7.899999999999999E-003   -3.751960851194362E-014
 -7.800000000000000E-003    1.186812733794256E-013
 -7.699999999999999E-003    2.831632628590144E-013
 -7.599999999999999E-003    4.409082968232092E-013
 -7.499999999999999E-003    5.757230265521464E-013
 -7.399999999999999E-003    6.716907347744334E-013
 -7.299999999999999E-003    7.147717355245252E-013
 -7.199999999999999E-003    6.944113394625868E-013
 -7.100000000000000E-003    6.049966375872975E-013
 -6.999999999999999E-003    4.469994055001938E-013
 -6.899999999999999E-003    2.276535870485192E-013
 -6.800000000000000E-003   -3.895612848396010E-014
 -6.699999999999999E-003   -3.324744180395859E-013
 -6.599999999999999E-003   -6.275469214334531E-013
 -6.499999999999999E-003   -8.957392366494091E-013
 -6.399999999999999E-003   -1.107989811704827E-012
 -6.299999999999999E-003   -1.237415093827716E-012
 -6.199999999999999E-003   -1.262228350042261E-012
 -6.100000000000000E-003   -1.168492583682180E-012
 -5.999999999999999E-003   -9.524110478156195E-013
 -5.899999999999999E-003   -6.218700387863420E-013
 -5.800000000000000E-003   -1.969883470772257E-013
 -5.699999999999999E-003    2.904999114739543E-013
 -5.599999999999999E-003    7.991059583983268E-013
 -5.499999999999999E-003    1.280649400226133E-012
 -5.399999999999999E-003    1.684355627199970E-012
 -5.299999999999999E-003    1.961693192101918E-012
 -5.199999999999999E-003    2.071545874560801E-012
 -5.099999999999999E-003    1.985230083763639E-012
 -4.999999999999999E-003    1.690825995700534E-012
 -4.899999999999999E-003    1.196296771847845E-012
 -4.799999999999999E-003    5.309321021895149E-013
 -4.699999999999999E-003   -2.552309339787076E-013
 -4.599999999999999E-003   -1.094189178897180E-012
 -4.499999999999999E-003   -1.904929869177922E-012
 -4.399999999999999E-003   -2.600307783326978E-012
 -4.299999999999999E-003   -3.095355702839887E-012
 -4.199999999999999E-003   -3.316338294912232E-012
 -4.099999999999999E-003   -3.209695812991602E-012
 -3.999999999999999E-003   -2.749936340819040E-012
 -3.899999999999999E-003   -1.945531938831852E-012
 -3.799999999999999E-003   -8.419713645279969E-013
 -3.699999999999999E-003    4.786833993935903E-013
 -3.599999999999999E-003    1.902098283787947E-012
 -3.499999999999999E-003    3.289831421793076E-012
 -3.399999999999999E-003    4.490957944698108E-012
 -3.299999999999999E-003    5.356347529410120E-012
 -3.199999999999999E-003    5.754414012769623E-012
 -3.099999999999999E-003    5.586866132846042E-012
 -2.999999999999999E-003    4.802816417163007E-012
 -2.899999999999999E-003    3.409591955455720E-012
 -2.799999999999999E-003    1.478739442941560E-012
 -2.699999999999999E-003   -8.539456485205827E-013
 -2.599999999999999E-003   -3.395049286731912E-012
 -2.499999999999999E-003   -5.906891580611233E-012
 -2.399999999999999E-003   -8.126971116635407E-012
 -2.299999999999999E-003   -9.792162184425333E-012
 -2.199999999999999E-003   -1.066568646060708E-011
 -2.099999999999999E-003   -1.056436502077013E-011
 -1.999999999999999E-003   -9.383369340190180E-012
 -1.899999999999999E-003   -7.115624195932570E-012
 -1.799999999999999E-003   -3.863296338586691E-012
 -1.699999999999999E-003    1.606794846234531E-013
 -1.599999999999999E-003    4.642246735651862E-012
 -1.499999999999999E-003    9.187232587046815E-012
 -1.399999999999999E-003    1.335273663661932E-011
 -1.299999999999999E-003    1.668675117468766E-011
 -1.199999999999999E-003    1.877278297778878E-011
 -1.099999999999999E-003    1.927540447385214E-011
 -9.999999999999989E-004    1.798215180837558E-011
 -8.999999999999990E-004    1.483711047926146E-011
 -7.999999999999990E-004    9.961923343593408E-012
 -6.999999999999989E-004    3.660840469284524E-012
 -5.999999999999990E-004   -3.592241548205402E-012
 -4.999999999999989E-004   -1.118515357926131E-011
 -3.999999999999989E-004   -1.841576464946505E-011
 -2.999999999999989E-004   -2.455387787123261E-011
 -1.999999999999989E-004   -2.891162574697065E-011
 -9.999999999999892E-005   -3.091595461182798E-011
  1.084202172485504E-018   -3.017595874497734E-011
  1.000000000000011E-004   -2.653771885718629E-011
  2.000000000000011E-004   -2.011991986827384E-011
  3.000000000000011E-004   -1.132491852395042E-011
  4.000000000000011E-004   -8.219788985828973E-013
  5.000000000000011E-004    1.049798404815987E-011
  6.000000000000011E-004    2.159395717854058E-011
  7.000000000000011E-004    3.136755012813181E-011
  8.000000000000011E-004    3.876913662366186E-011
  9.000000000000012E-004    4.290761809791193E-011
  1.000000000000001E-003    4.315283288286668E-011
  1.100000000000001E-003    3.921944027358780E-011
  1.200000000000001E-003    3.122215526898901E-011
  1.300000000000001E-003    1.969431162575389E-011
  1.400000000000001E-003    5.564889676992582E-012
  1.500000000000001E-003   -9.906921895185056E-012
  1.600000000000001E-003   -2.523623770209814E-011
  1.700000000000001E-003   -3.884833420649473E-011
  1.800000000000001E-003   -4.923423820749873E-011
  1.900000000000001E-003   -5.511148552271035E-011
  2.000000000000001E-003   -5.557374173196994E-011
  2.100000000000001E-003   -5.021289681561666E-011
  2.200000000000001E-003   -3.919881523767793E-011
  2.300000000000001E-003   -2.330513681500049E-011
  2.400000000000001E-003   -3.874274901163212E-012
  2.500000000000001E-003    1.727947661880774E-011
  2.600000000000001E-003    3.802344067572784E-011
  2.700000000000001E-003    5.610509264027211E-011
  2.800000000000001E-003    6.937846931653648E-011
  2.900000000000001E-003    7.603706774830957E-011
  3.000000000000001E-003    7.482956840741491E-011
  3.100000000000001E-003    6.523465647690399E-011
  3.200000000000001E-003    4.757363368269937E-011
  3.300000000000001E-003    2.304436939234688E-011
  3.400000000000001E-003   -6.332978951083845E-012
  3.500000000000001E-003   -3.785963034555811E-011
  3.600000000000001E-003   -6.838329704451380E-011
  3.700000000000001E-003   -9.458774315171232E-011
  3.800000000000001E-003   -1.133219499638358E-010
  3.900000000000001E-003   -1.219380425508253E-010
  4.000000000000001E-003   -1.186040291998246E-010
  4.100000000000001E-003   -1.025574959385881E-010
  4.200000000000001E-003   -7.426986641369443E-011
  4.300000000000001E-003   -3.549784023387248E-011
  4.400000000000001E-003    1.079156167834121E-011
  4.500000000000001E-003    6.062406857730838E-011
  4.600000000000002E-003    1.093381505709865E-010
  4.700000000000001E-003    1.519981381772437E-010
  4.800000000000001E-003    1.838654956234685E-010
  4.900000000000002E-003    2.008850915919675E-010
  5.000000000000001E-003    2.001387531474900E-010
  5.100000000000001E-003    1.802183973341475E-010
  5.200000000000001E-003    1.414760479751126E-010
  5.300000000000002E-003    8.611731665654160E-011
  5.400000000000001E-003    1.811853443704185E-011
  5.500000000000001E-003   -5.703599053379190E-011
  5.600000000000002E-003   -1.327824517974748E-010
  5.700000000000001E-003   -2.020401860971784E-010
  5.800000000000001E-003   -2.578616377707125E-010
  5.900000000000002E-003   -2.941110414692186E-010
  6.000000000000001E-003   -3.061070943324112E-010
  6.100000000000001E-003   -2.911641680058267E-010
  6.200000000000002E-003   -2.489728230419796E-010
  6.300000000000002E-003   -1.817730447527991E-010
  6.400000000000001E-003   -9.429072406916881E-011
  6.500000000000001E-003    6.569887508692146E-012
  6.600000000000002E-003    1.122617434354076E-010
  6.700000000000001E-003    2.133191393067351E-010
  6.800000000000001E-003    3.002103040949720E-010
  6.900000000000002E-003    3.642423271752313E-010
  7.000000000000001E-003    3.984330835962290E-010
  7.100000000000001E-003    3.982635473234707E-010
  7.200000000000002E-003    3.622307957558575E-010
  7.300000000000002E-003    2.921377928946057E-010
  7.400000000000001E-003    1.930780520516029E-010
  7.500000000000001E-003    7.310142223479604E-011
  7.600000000000002E-003   -5.742223373384563E-011
  7.700000000000001E-003   -1.866944476651995E-010
  7.800000000000001E-003   -3.025597817669287E-010
  7.900000000000001E-003   -3.936619916303976E-010
  8.000000000000002E-003   -4.505754526945374E-010
  8.100000000000001E-003   -4.668000489133811E-010
  8.200000000000001E-003   -4.395152915989963E-010
  8.300000000000002E-003   -3.700088152537754E-010
  8.400000000000001E-003   -2.637210968657095E-010
  8.500000000000002E-003   -1.298846225502645E-010
  8.600000000000002E-003    1.922651655533976E-011
  8.700000000000001E-003    1.693806642736523E-010
  8.800000000000002E-003    3.057152719013091E-010
  8.900000000000002E-003    4.141862551521945E-010
  9.000000000000001E-003    4.830028798673627E-010
  9.100000000000002E-003    5.039050398016210E-010
  9.200000000000002E-003    4.731485859682442E-010
  9.300000000000001E-003    3.920872953804591E-010
  9.400000000000002E-003    2.672730111925633E-010
  9.500000000000001E-003    1.100406736637793E-010
  9.600000000000001E-003   -6.440663004049123E-011
  9.700000000000002E-003   -2.383471767015967E-010
  9.800000000000001E-003   -3.932125346366327E-010
  9.900000000000001E-003   -5.114328225610553E-010
  1.000000000000000E-002   -5.782808082237650E-010
  1.010000000000000E-002   -5.835318675063574E-010
  1.020000000000000E-002   -5.227652684688692E-010
  1.030000000000000E-002   -3.981582815566253E-010
  1.040000000000000E-002   -2.186667060144691E-010
  1.050000000000000E-002    4.598698229274691E-013
  1.060000000000000E-002    2.388174241478900E-010
  1.070000000000000E-002    4.725661466319722E-010
  1.080000000000000E-002    6.765923937153708E-010
  1.090000000000000E-002    8.269275831508483E-010
  1.100000000000000E-002    9.032019931692558E-010
  1.110000000000000E-002    8.908972344304962E-010
  1.120000000000000E-002    7.831674033006224E-010
  1.130000000000000E-002    5.820274638087849E-010
  1.140000000000000E-002    2.987597734867906E-010
  1.150000000000000E-002   -4.654467806228378E-011
  1.160000000000000E-002   -4.263142932668490E-010
  1.170000000000000E-002   -8.076151856069234E-010
  1.180000000000000E-002   -1.154900859580550E-009
  1.190000000000000E-002   -1.433166421458402E-009
  1.200000000000000E-002   -1.611230051485632E-009
  1.210000000000000E-002   -1.664838401622012E-009
  1.220000000000000E-002   -1.579295457755161E-009
  1.230000000000000E-002   -1.351343632333151E-009
  1.240000000000000E-002   -9.900845620470441E-010
  1.250000000000000E-002   -5.168082869938587E-010
  1.260000000000000E-002    3.630374072644516E-011
  1.270000000000000E-002    6.285316427912052E-010
  1.280000000000000E-002    1.213852214749084E-009
  1.290000000000000E-002    1.744791947941445E-009
  1.300000000000000E-002    2.176563574763858E-009
  1.310000000000000E-002    2.471111034054052E-009
  1.320000000000000E-002    2.600681230828511E-009
  1.330000000000000E-002    2.550570591457894E-009
  1.340000000000000E-002    2.320756943598994E-009
  1.350000000000000E-002    1.926225500300329E-009
  1.360000000000000E-002    1.395912449719783E-009
  1.370000000000000E-002    7.703195541908078E-010
  1.380000000000000E-002    9.798351793363068E-011
  1.390000000000000E-002   -5.688985751971796E-010
  1.400000000000000E-002   -1.179294166968123E-009
  1.410000000000000E-002   -1.688157169167218E-009
  1.420000000000000E-002   -2.060777124450091E-009
  1.430000000000000E-002   -2.276211413909514E-009
  1.440000000000000E-002   -2.329430627700067E-009
  1.450000000000000E-002   -2.231916330764122E-009
  1.460000000000000E-002   -2.010593755858674E-009
  1.470000000000000E-002   -1.705137452144905E-009
  1.480000000000000E-002   -1.363854865400746E-009
  1.490000000000000E-002   -1.038497787374306E-009
  1.500000000000000E-002   -7.784775308038017E-010
  1.510000000000000E-002   -6.250382111725302E-010
  1.520000000000000E-002   -6.059758041953557E-010
  1.530000000000000E-002   -7.314633087097511E-010
  1.540000000000000E-002   -9.914659430443613E-010
  1.550000000000000E-002   -1.355095277106991E-009
  1.560000000000000E-002   -1.772083075727751E-009
  1.570000000000000E-002   -2.176358433749101E-009
  1.580000000000000E-002   -2.491507551374013E-009
  1.590000000000000E-002   -2.637706073221706E-009
  1.600000000000000E-002   -2.539547460434616E-009
  1.610000000000000E-002   -2.134081842297261E-009
  1.620000000000000E-002   -1.378323393122091E-009
  1.630000000000000E-002   -2.554982560965621E-010
  1.640000000000000E-002    1.220611640201790E-009
  1.650000000000000E-002    3.003723768662150E-009
  1.660000000000000E-002    5.015812128981561E-009
  1.670000000000000E-002    7.150624147126571E-009
  1.680000000000000E-002    9.279773645827492E-009
  1.690000000000000E-002    1.126098679949301E-008
  1.700000000000000E-002    1.294786737354207E-008
  1.710000000000000E-002    1.420039180323419E-008
  1.720000000000000E-002    1.489526443825228E-008
  1.730000000000000E-002    1.493526139632550E-008
  1.740000000000000E-002    1.425676134064486E-008
  1.750000000000000E-002    1.283482163201200E-008
  1.760000000000000E-002    1.068539091748462E-008
  1.770000000000000E-002    7.864499168495240E-009
  1.780000000000000E-002    4.464572629473709E-009
  1.790000000000000E-002    6.082970473961615E-010
  1.800000000000000E-002   -3.559298207429784E-009
  1.810000000000000E-002   -7.879664784955045E-009
  1.820000000000000E-002   -1.218949860713684E-008
  1.830000000000000E-002   -1.632843764728394E-008
  1.840000000000000E-002   -2.014479235060141E-008
  1.850000000000000E-002   -2.349855447696623E-008
  1.860000000000000E-002   -2.626120919439228E-008
  1.870000000000000E-002   -2.831217113430515E-008