 -4.000000000000000E-002    0.000000000000000E+000
 -3.990000000000000E-002    0.000000000000000E+000
 -3.980000000000000E-002    0.000000000000000E+000
 -3.970000000000000E-002    0.000000000000000E+000
 -3.960000000000000E-002    0.000000000000000E+000
 -3.950000000000000E-002    0.000000000000000E+000
 -3.940000000000000E-002    0.000000000000000E+000
 -3.930000000000000E-002    0.000000000000000E+000
 -3.920000000000000E-002    0.000000000000000E+000
 -3.910000000000000E-002    0.000000000000000E+000
 -3.900000000000000E-002    0.000000000000000E+000
 -3.890000000000000E-002    0.000000000000000E+000
 -3.880000000000000E-002    0.000000000000000E+000
 -3.870000000000000E-002    4.518113103368520E-042
 -3.860000000000000E-002    1.189793493044783E-040
 -3.850000000000000E-002    1.615165625542740E-039
 -3.840000000000000E-002    1.504394905252880E-038
 -3.830000000000000E-002    1.079777717158994E-037
 -3.820000000000000E-002    6.360199958480153E-037
 -3.810000000000000E-002    3.197663135795647E-036
 -3.800000000000000E-002    1.409306713272340E-035
 -3.790000000000000E-002    5.550152280289281E-035
 -3.780000000000000E-002    1.981215474501104E-034
 -3.770000000000000E-002    6.480858560618474E-034
 -3.760000000000000E-002    1.959301074367387E-033
 -3.750000000000000E-002    5.511019010742831E-033
 -3.740000000000000E-002    1.449710281134951E-032
 -3.730000000000000E-002    3.580695410436575E-032
 -3.720000000000000E-002    8.327626793872690E-032
 -3.710000000000000E-002    1.826806124902637E-031
 -3.700000000000000E-002    3.781825211845768E-031
 -3.690000000000000E-002    7.380968019335054E-031
 -3.680000000000000E-002    1.353851484222705E-030
 -3.670000000000000E-002    2.318673592676110E-030
 -3.660000000000000E-002    3.660657399157221E-030
 -3.650000000000000E-002    5.188162134522033E-030
 -3.640000000000000E-002    6.185861302667316E-030
 -3.630000000000000E-002    4.883610496165432E-030
 -3.620000000000000E-002   -2.378799317710158E-030
 -3.610000000000000E-002   -2.232626172144510E-029
 -3.600000000000000E-002   -6.617978996994828E-029
 -3.590000000000000E-002   -1.510228889149130E-028
 -3.580000000000000E-002   -3.003729317375627E-028
 -3.570000000000000E-002   -5.426196229284802E-028
 -3.560000000000000E-002   -9.052010450794249E-028
 -3.550000000000000E-002   -1.401517740393836E-027
 -3.540000000000000E-002   -2.006894152688112E-027
 -3.530000000000000E-002   -2.619832506263588E-027
 -3.520000000000000E-002   -3.006063103688660E-027
 -3.510000000000000E-002   -2.726379442034021E-027
 -3.500000000000000E-002   -1.055977359291766E-027
 -3.490000000000000E-002    3.086110335121824E-027
 -3.480000000000000E-002    1.116353620839128E-026
 -3.470000000000000E-002    2.495209155386088E-026
 -3.460000000000000E-002    4.629886928290075E-026
 -3.450000000000000E-002    7.662183977861465E-026
 -3.440000000000000E-002    1.160568125647970E-025
 -3.430000000000000E-002    1.621791372319284E-025
 -3.420000000000000E-002    2.082855665716784E-025
 -3.410000000000000E-002    2.413320716591130E-025
 -3.400000000000000E-002    2.397966686526138E-025
 -3.390000000000000E-002    1.719745154920283E-025
 -3.380000000000000E-002   -4.498125876738856E-027
 -3.370000000000000E-002   -3.407909343578499E-025
 -3.360000000000000E-002   -8.913470695864586E-025
 -3.350000000000000E-002   -1.703222474660724E-024
 -3.340000000000000E-002   -2.799035661644499E-024
 -3.330000000000000E-002   -4.152883694123197E-024
 -3.320000000000000E-002   -5.659777169905520E-024
 -3.310000000000000E-002   -7.101018703832203E-024
 -3.300000000000000E-002   -8.110497755119659E-024
 -3.290000000000000E-002   -8.149977735880636E-024
 -3.280000000000000E-002   -6.504701839870515E-024
 -3.270000000000000E-002   -2.313506940674989E-024
 -3.260000000000000E-002    5.350862973122260E-024
 -3.250000000000000E-002    1.733641110264842E-023
 -3.240000000000000E-002    3.419120243433720E-023
 -3.230000000000000E-002    5.586631211562729E-023
 -3.220000000000000E-002    8.135616685962915E-023
 -3.210000000000000E-002    1.083104490374472E-022
 -3.200000000000000E-002    1.326765854086764E-022
 -3.190000000000000E-002    1.484586278167215E-022
 -3.180000000000000E-002    1.477029338926362E-022
 -3.170000000000000E-002    1.208370840444854E-022
 -3.160000000000000E-002    5.748905980140181E-023
 -3.150000000000000E-002   -5.210961208660429E-023
 -3.140000000000000E-002   -2.150873757213847E-022
 -3.130000000000000E-002   -4.333040461535243E-022
 -3.120000000000000E-002   -7.002987006042422E-022
 -3.110000000000000E-002   -9.981406578278409E-022
 -3.100000000000000E-002   -1.294685595124592E-021
 -3.090000000000000E-002   -1.541904833926771E-021
 -3.080000000000000E-002   -1.676083331582460E-021
 -3.070000000000000E-002   -1.620726162464822E-021
 -3.060000000000000E-002   -1.292929674069016E-021
 -3.050000000000000E-002   -6.137283672281337E-022
 -3.040000000000000E-002    4.775211312290160E-022
 -3.030000000000000E-002    2.005301627496184E-021
 -3.020000000000000E-002    3.938052904044907E-021
 -3.010000000000000E-002    6.168592791307400E-021
 -3.000000000000000E-002    8.498122102455985E-021
 -2.990000000000000E-002    1.062787286639851E-020
 -2.980000000000000E-002    1.216287756421787E-020
 -2.970000000000000E-002    1.263220138926034E-020
 -2.960000000000000E-002    1.152907801401284E-020
 -2.950000000000000E-002    8.372571648367403E-021
 -2.940000000000000E-002    2.789648101969595E-021
 -2.930000000000000E-002   -5.387138641678248E-021
 -2.920000000000000E-002   -1.601536802965491E-020
 -2.910000000000000E-002   -2.854532973584057E-020
 -2.900000000000000E-002   -4.194683774965292E-020
 -2.890000000000000E-002   -5.468032198381755E-020
 -2.880000000000000E-002   -6.473270600727291E-020
 -2.870000000000000E-002   -6.973608666771759E-020
 -2.860000000000000E-002   -6.718109305046651E-020
 -2.850000000000000E-002   -5.472660389825201E-020
 -2.840000000000000E-002   -3.059366737429673E-020
 -2.830000000000000E-002    5.985310872743443E-021
 -2.820000000000000E-002    5.430923394241041E-020
 -2.810000000000000E-002    1.118068971874142E-019
 -2.800000000000000E-002    1.737687976970359E-019
 -2.790000000000000E-002    2.332952639376497E-019
 -2.780000000000000E-002    2.815395860520424E-019
 -2.770000000000000E-002    3.083070447486968E-019
 -2.760000000000000E-002    3.030387786488482E-019
 -2.750000000000000E-002    2.561624539788777E-019
 -2.740000000000000E-002    1.607333270180743E-019
 -2.730000000000000E-002    1.422378026153791E-020
 -2.720000000000000E-002   -1.797462066410947E-019
 -2.710000000000000E-002   -4.099998631053663E-019
 -2.700000000000000E-002   -6.570117611459198E-019
 -2.690000000000000E-002   -8.930312795628445E-019
 -2.680000000000000E-002   -1.083379230767534E-018
 -2.670000000000000E-002   -1.189085339164546E-018
 -2.660000000000000E-002   -1.170897114346007E-018
 -2.650000000000000E-002   -9.945065672417469E-019
 -2.640000000000000E-002   -6.366290593178839E-019
 -2.630000000000000E-002   -9.134394264053666E-020
 -2.620000000000000E-002    6.240950142207820E-019
 -2.610000000000000E-002    1.464920548011252E-018
 -2.600000000000000E-002    2.356988384020334E-018
 -2.590000000000000E-002    3.198329599285009E-018
 -2.580000000000000E-002    3.864852511282819E-018
 -2.570000000000000E-002    4.220567341157139E-018
 -2.560000000000000E-002    4.132192537389370E-018
 -2.550000000000000E-002    3.487378689204132E-018
 -2.540000000000000E-002    2.215097248629448E-018
 -2.530000000000000E-002    3.060725119607400E-019
 -2.520000000000000E-002   -2.169420029536631E-018
 -2.510000000000000E-002   -5.049414721151446E-018
 -2.500000000000000E-002   -8.076817273233788E-018
 -2.490000000000000E-002   -1.090734862629435E-017
 -2.480000000000000E-002   -1.313072815038933E-017
 -2.470000000000000E-002   -1.430570224563527E-017
 -2.460000000000000E-002   -1.400786977810153E-017
 -2.450000000000000E-002   -1.188736379403370E-017
 -2.440000000000000E-002   -7.731453457970398E-018
 -2.430000000000000E-002   -1.525338449692056E-018
 -2.420000000000000E-002    6.496966447454986E-018
 -2.410000000000000E-002    1.582041112924855E-017
 -2.400000000000000E-002    2.564376604385481E-017
 -2.390000000000000E-002    3.490851300508859E-017
 -2.380000000000000E-002    4.236606245423267E-017
 -2.370000000000000E-002    4.668373772871551E-017
 -2.360000000000000E-002    4.658531446825582E-017
 -2.350000000000000E-002    4.101665303679309E-017
 -2.340000000000000E-002    2.932182972741269E-017
 -2.330000000000000E-002    1.141071599510676E-017
 -2.320000000000000E-002   -1.210404597193736E-017
 -2.310000000000000E-002   -3.982365158866660E-017
 -2.300000000000000E-002   -6.955467546691909E-017
 -2.290000000000000E-002   -9.839217484720390E-017
 -2.280000000000000E-002   -1.229034362201393E-016
 -2.270000000000000E-002   -1.394112313309651E-016
 -2.260000000000000E-002   -1.443632494116438E-016
 -2.250000000000000E-002   -1.347617143413627E-016
 -2.240000000000000E-002   -1.086146851321053E-016
 -2.230000000000000E-002   -6.536087657727779E-017
 -2.220000000000000E-002   -6.213567627947524E-018
 -2.210000000000000E-002    6.563141008922370E-017
 -2.200000000000000E-002    1.449733668463361E-016
 -2.190000000000000E-002    2.248064928880620E-016
 -2.180000000000000E-002    2.967600861705952E-016
 -2.170000000000000E-002    3.517719810352249E-016
 -2.160000000000000E-002    3.809604788092711E-016
 -2.150000000000000E-002    3.766306528314729E-016
 -2.140000000000000E-002    3.333245137785610E-016
 -2.130000000000000E-002    2.488041980171277E-016
 -2.120000000000000E-002    1.248458950146937E-016
 -2.110000000000000E-002   -3.227677557087043E-017
 -2.100000000000000E-002   -2.117252438407746E-016
 -2.090000000000000E-002   -3.985208115648518E-016
 -2.080000000000000E-002   -5.744942204175341E-016
 -2.070000000000000E-002   -7.197391476727122E-016
 -2.060000000000000E-002   -8.144873549196323E-016
 -2.050000000000000E-002   -8.412650705314981E-016
 -2.040000000000000E-002   -7.871350176237722E-016
 -2.030000000000000E-002   -6.457902668727926E-016
 -2.020000000000000E-002   -4.192460328966355E-016
 -2.010000000000000E-002   -1.188822240173050E-016
 -2.000000000000000E-002    2.343748876371212E-016
 -1.990000000000000E-002    6.108798271275068E-016
 -1.980000000000000E-002    9.741643257082680E-016
 -1.970000000000000E-002    1.283850459459195E-015
 -1.960000000000000E-002    1.499414700194440E-015
 -1.950000000000000E-002    1.584516172996408E-015
 -1.940000000000000E-002    1.511502165982517E-015
 -1.930000000000000E-002    1.265632437356859E-015
 -1.920000000000000E-002    8.485273621891132E-016
 -1.910000000000000E-002    2.803639544118882E-016
 -1.900000000000000E-002   -3.995890729643216E-016
 -1.890000000000000E-002   -1.134384381119989E-015
 -1.880000000000000E-002   -1.852870847705262E-015
 -1.870000000000000E-002   -2.475150848765439E-015
 -1.860000000000000E-002   -2.919710350720919E-015
 -1.850000000000000E-002   -3.111705964716022E-015
 -1.840000000000000E-002   -2.991702036373890E-015
 -1.830000000000000E-002   -2.524013954747530E-015
 -1.820000000000000E-002   -1.703750593912390E-015
 -1.810000000000000E-002   -5.616700602623746E-016
 -1.800000000000000E-002    8.339304354033379E-016
 -1.790000000000000E-002    2.378857766012261E-015
 -1.780000000000000E-002    3.938481083322066E-015
 -1.770000000000000E-002    5.356944548420849E-015
 -1.760000000000000E-002    6.469681766589269E-015
 -1.750000000000000E-002    7.118415797147754E-015
 -1.740000000000000E-002    7.167477679055521E-015
 -1.730000000000000E-002    6.520014151557469E-015
 -1.720000000000000E-002    5.132513560149904E-015
 -1.710000000000000E-002    3.026047511220058E-015
 -1.700000000000000E-002    2.927677354186728E-016
 -1.690000000000000E-002   -2.903510779715298E-015
 -1.680000000000000E-002   -6.333389198617842E-015
 -1.670000000000000E-002   -9.714837564164309E-015
 -1.660000000000000E-002   -1.273259194744662E-014
 -1.650000000000000E-002   -1.506295595057272E-014
 -1.640000000000000E-002   -1.640234304360785E-014
 -1.630000000000000E-002   -1.649735724470181E-014
 -1.620000000000000E-002   -1.517388130367257E-014
 -1.610000000000000E-002   -1.236238981624419E-014
 -1.600000000000000E-002   -8.116819423976272E-015
 -1.590000000000000E-002   -2.624561693092704E-015
 -1.580000000000000E-002    3.794322184064909E-015
 -1.570000000000000E-002    1.069977154694009E-014
 -1.560000000000000E-002    1.755652832993081E-014
 -1.550000000000000E-002    2.377021212225107E-014
 -1.540000000000000E-002    2.873280094871312E-014
 -1.530000000000000E-002    3.187452113091945E-014
 -1.520000000000000E-002    3.271835441388523E-014
 -1.510000000000000E-002    3.093264562469647E-014
 -1.500000000000000E-002    2.637698197337447E-014
 -1.490000000000000E-002    1.913648683530588E-014
 -1.480000000000000E-002    9.540262758296981E-015
 -1.470000000000000E-002   -1.839631081426051E-015
 -1.460000000000000E-002   -1.421082446442797E-014
 -1.450000000000000E-002   -2.660536565300083E-014
 -1.440000000000000E-002   -3.794540552808604E-014
 -1.430000000000000E-002   -4.712639378435444E-014
 -1.420000000000000E-002   -5.311250754071600E-014
 -1.410000000000000E-002   -5.503732361865972E-014
 -1.400000000000000E-002   -5.230126856644133E-014
 -1.390000000000000E-002   -4.465672614197393E-014
 -1.380000000000000E-002   -3.227155439282526E-014
 -1.370000000000000E-002   -1.576249748164795E-014
 -1.360000000000000E-002    3.808197278825248E-015
 -1.350000000000000E-002    2.497734420011336E-014
 -1.340000000000000E-002    4.596775907395913E-014
 -1.330000000000000E-002    6.481471568011209E-014
 -1.320000000000000E-002    7.952523647753019E-014
 -1.310000000000000E-002    8.825971194077599E-014
 -1.300000000000000E-002    8.952147820025332E-014
 -1.290000000000000E-002    8.233779277943600E-014
 -1.280000000000000E-002    6.641399839489785E-014
 -1.270000000000000E-002    4.224295478937700E-014
 -1.260000000000000E-002    1.115374187981330E-014
 -1.250000000000000E-002   -2.471265834956223E-014
 -1.240000000000000E-002   -6.250762354986676E-014
 -1.230000000000000E-002   -9.885892010519138E-014
 -1.220000000000000E-002   -1.301272408501806E-013
 -1.210000000000000E-002   -1.527193989084133E-013
 -1.200000000000000E-002   -1.634353323580572E-013
 -1.190000000000000E-002   -1.598197447074671E-013
 -1.180000000000000E-002   -1.404848236191103E-013
 -1.170000000000000E-002   -1.053700943666900E-013
 -1.160000000000000E-002   -5.590615989855390E-014
 -1.150000000000000E-002    4.944578871055414E-015
 -1.140000000000000E-002    7.278893793247130E-014
 -1.130000000000000E-002    1.420527998957611E-013
 -1.120000000000000E-002    2.063729836736599E-013
 -1.110000000000000E-002    2.591100747105564E-013
 -1.100000000000000E-002    2.939465632376484E-013
 -1.090000000000000E-002    3.055230759871252E-013
 -1.080000000000000E-002    2.900553129991786E-013
 -1.070000000000000E-002    2.458707284641135E-013
 -1.060000000000000E-002    1.738047156826510E-013
 -1.050000000000000E-002    7.740298147824193E-014
 -1.040000000000000E-002   -3.711011058985548E-014
 -1.030000000000000E-002   -1.611192814322385E-013
 -1.020000000000000E-002   -2.841619682690531E-013
 -1.010000000000000E-002   -3.947031716661312E-013
 -1.000000000000000E-002   -4.810922365715966E-013
 -9.899999999999999E-003   -5.326299304039191E-013
 -9.800000000000000E-003   -5.406577527897326E-013
 -9.699999999999999E-003   -4.995689417407081E-013
 -9.599999999999999E-003   -4.076407324271583E-013
 -9.500000000000000E-003   -2.675929429449137E-013
 -9.399999999999999E-003   -8.679511391475471E-014
 -9.299999999999999E-003    1.229269043194576E-013
 -9.200000000000000E-003    3.459080411743050E-013
 -9.099999999999999E-003    5.636625954623760E-013
 -8.999999999999999E-003    7.562501966571067E-013
 -8.900000000000000E-003    9.038959435520329E-013
 -8.799999999999999E-003    9.887418359063185E-013
 -8.699999999999999E-003    9.965837369032897E-013
 -8.600000000000000E-003    9.184414387394872E-013
 -8.499999999999999E-003    7.518097040550995E-013
 -8.399999999999999E-003    5.014557681605364E-013
 -8.300000000000000E-003    1.796604673336034E-013
 -8.199999999999999E-003   -1.941591682717484E-013
 -8.100000000000000E-003   -5.944614429833582E-013
 -8.000000000000000E-003   -9.911835238402585E-013
 -7.899999999999999E-003   -1.351844390629212E-012
 -7.800000000000000E-003   -1.644006861820298E-012
 -7.699999999999999E-003   -1.837918385576828E-012
 -7.599999999999999E-003   -1.909125863198431E-012
 -7.499999999999999E-003   -1.840847396937054E-012
 -7.399999999999999E-003   -1.625894364331061E-012
 -7.299999999999999E-003   -1.267961538599993E-012
 -7.199999999999999E-003   -7.821355349543092E-013
 -7.100000000000000E-003   -1.945370592809445E-013
 -6.999999999999999E-003    4.589279653388994E-013
 -6.899999999999999E-003    1.134671775142825E-012
 -6.800000000000000E-003    1.784267876638349E-012
 -6.699999999999999E-003    2.357862666004525E-012
 -6.599999999999999E-003    2.807926113183026E-012
 -6.499999999999999E-003    3.093072697337904E-012
 -6.399999999999999E-003    3.181672279243905E-012
 -6.299999999999999E-003    3.054937674472564E-012
 -6.199999999999999E-003    2.709245688958449E-012
 -6.100000000000000E-003    2.157428064514593E-012
 -5.999999999999999E-003    1.428871017264699E-012
 -5.899999999999999E-003    5.683262219640429E-013
 -5.800000000000000E-003   -3.665887015486449E-013
 -5.699999999999999E-003   -1.309101383919326E-012
 -5.599999999999999E-003   -2.188023795693341E-012
 -5.499999999999999E-003   -2.933242824121932E-012
 -5.399999999999999E-003   -3.481566407107183E-012
 -5.299999999999999E-003   -3.782514587897091E-012
 -5.199999999999999E-003   -3.803553427485406E-012
 -5.099999999999999E-003   -3.534289016320242E-012
 -4.999999999999999E-003   -2.989147150962764E-012
 -4.899999999999999E-003   -2.208155289728544E-012
 -4.799999999999999E-003   -1.255541585180734E-012
 -4.699999999999999E-003   -2.160081510132184E-013
 -4.599999999999999E-003    8.112526234746047E-013
 -4.499999999999999E-003    1.720554079710764E-012
 -4.399999999999999E-003    2.409240235126172E-012
 -4.299999999999999E-003    2.788065768484001E-012
 -4.199999999999999E-003    2.791562685947006E-012
 -4.099999999999999E-003    2.387449476196797E-012
 -3.999999999999999E-003    1.584018261784586E-012
 -3.899999999999999E-003    4.345398623752640E-013
 -3.799999999999999E-003   -9.621664867457968E-013
 -3.699999999999999E-003   -2.465606835980291E-012
 -3.599999999999999E-003   -3.902193637492440E-012
 -3.499999999999999E-003   -5.078369883671005E-012
 -3.399999999999999E-003   -5.797676508235573E-012
 -3.299999999999999E-003   -5.880644272544464E-012
 -3.199999999999999E-003   -5.185978402409298E-012
 -3.099999999999999E-003   -3.631117553340942E-012
 -2.999999999999999E-003   -1.210093932337754E-012
 -2.899999999999999E-003    1.993550938862312E-012
 -2.799999999999999E-003    5.800745189478037E-012
 -2.699999999999999E-003    9.939389272469319E-012
 -2.599999999999999E-003    1.405640148548897E-011
 -2.499999999999999E-003    1.773951278092276E-011
 -2.399999999999999E-003    2.054809964484192E-011
 -2.299999999999999E-003    2.205132643531343E-011
 -2.199999999999999E-003    2.187094170661195E-011
 -2.099999999999999E-003    1.972520572528371E-011
 -1.999999999999999E-003    1.546987722372863E-011
 -1.899999999999999E-003    9.131886048373931E-012
 -1.799999999999999E-003    9.314623180500352E-013
 -1.699999999999999E-003   -8.710946258914965E-012
 -1.599999999999999E-003   -1.918560767388019E-011
 -1.499999999999999E-003   -2.972353822341162E-011
 -1.399999999999999E-003   -3.944522392821847E-011
 -1.299999999999999E-003   -4.742571976998288E-011
 -1.199999999999999E-003   -5.277190701176760E-011
 -1.099999999999999E-003   -5.470616119488197E-011
 -9.999999999999989E-004   -5.264922214294758E-011
 -8.999999999999990E-004   -4.629438008683924E-011
 -7.999999999999990E-004   -3.566508386478900E-011
 -6.999999999999989E-004   -2.114870101175138E-011
 -5.999999999999990E-004   -3.500740121811691E-012
 -4.999999999999989E-004    1.618396522579678E-011
 -3.999999999999989E-004    3.653381085923008E-011
 -2.999999999999989E-004    5.599418464258324E-011
 -1.999999999999989E-004    7.294668352828569E-011
 -9.999999999999892E-005    8.584515054465250E-011
  1.084202172485504E-018    9.335719283643724E-011
  1.000000000000011E-004    9.449849958434768E-011
  2.000000000000011E-004    8.874654663385001E-011
  3.000000000000011E-004    7.612136340626687E-011
  4.000000000000011E-004    5.722279073758875E-011
  5.000000000000011E-004    3.321722868202377E-011
  6.000000000000011E-004    5.771017262246300E-012
  7.000000000000011E-004   -2.306749879555152E-011
  8.000000000000011E-004   -5.102955587145277E-011
  9.000000000000012E-004   -7.581950558411439E-011
  1.000000000000001E-003   -9.532344891818958E-011
  1.100000000000001E-003   -1.078140969796730E-010
  1.200000000000001E-003   -1.121315295376669E-010
  1.300000000000001E-003   -1.078203710779489E-010
  1.400000000000001E-003   -9.520676658592912E-011
  1.500000000000001E-003   -7.540320616265023E-011
  1.600000000000001E-003   -5.023582271221047E-011
  1.700000000000001E-003   -2.209580845064220E-011
  1.800000000000001E-003    6.275170109059699E-012
  1.900000000000001E-003    3.204857155238173E-011
  2.000000000000001E-003    5.259800940540867E-011
  2.100000000000001E-003    6.578588668573807E-011
  2.200000000000001E-003    7.021787253712897E-011
  2.300000000000001E-003    6.543646472517560E-011
  2.400000000000001E-003    5.202873048458334E-011
  2.500000000000001E-003    3.163048403325154E-011
  2.600000000000001E-003    6.818328718808372E-012
  2.700000000000001E-003   -1.910797112480873E-011
  2.800000000000001E-003   -4.243911700883451E-011
  2.900000000000001E-003   -5.944038360957961E-011
  3.000000000000001E-003   -6.677192385149468E-011
  3.100000000000001E-003   -6.190435351453554E-011
  3.200000000000001E-003   -4.348525497058883E-011
  3.300000000000001E-003   -1.161393186958105E-011
  3.400000000000001E-003    3.201228523134667E-011
  3.500000000000001E-003    8.410705138163701E-011
  3.600000000000001E-003    1.399723086394302E-010
  3.700000000000001E-003    1.938408558955524E-010
  3.800000000000001E-003    2.393639070098125E-010
  3.900000000000001E-003    2.702067160126844E-010
  4.000000000000001E-003    2.807016102097338E-010
  4.100000000000001E-003    2.664973925206019E-010
  4.200000000000001E-003    2.251391992440120E-010
  4.300000000000001E-003    1.565148664653121E-010
  4.400000000000001E-003    6.311149125042918E-011
  4.500000000000001E-003   -4.995955227495148E-011
  4.600000000000002E-003   -1.751913132006565E-010
  4.700000000000001E-003   -3.031625167308638E-010
  4.800000000000001E-003   -4.232446640500188E-010
  4.900000000000002E-003   -5.244851486326047E-010
  5.000000000000001E-003   -5.965937504019586E-010
  5.100000000000001E-003   -6.309455607134243E-010
  5.200000000000001E-003   -6.215052027437530E-010
  5.300000000000002E-003   -5.655765715026131E-010
  5.400000000000001E-003   -4.642947733500720E-010
  5.500000000000001E-003   -3.227933548448705E-010
  5.600000000000002E-003   -1.500090679363890E-010
  5.700000000000001E-003    4.188252713153628E-011
  5.800000000000001E-003    2.383711212110024E-010
  5.900000000000002E-003    4.237923082448123E-010
  6.000000000000001E-003    5.826888349050787E-010
  6.100000000000001E-003    7.012351425763339E-010
  6.200000000000002E-003    7.685928137134354E-010
  6.300000000000002E-003    7.780633339142977E-010
  6.400000000000001E-003    7.279153219414225E-010
  6.500000000000001E-003    6.217887364151023E-010
  6.600000000000002E-003    4.686112339326879E-010
  6.700000000000001E-003    2.820070544788151E-010
  6.800000000000001E-003    7.922477344290729E-011
  6.900000000000002E-003   -1.203403148706990E-010
  7.000000000000001E-003   -2.969115291669231E-010
  7.100000000000001E-003   -4.322302893952865E-010
  7.200000000000002E-003   -5.114159960044622E-010
  7.300000000000002E-003   -5.246051924586699E-010
  7.400000000000001E-003   -4.682008791800498E-010
  7.500000000000001E-003   -3.455903405586141E-010
  7.600000000000002E-003   -1.672334824023610E-010
  7.700000000000001E-003    4.992266163292272E-011
  7.800000000000001E-003    2.836839839777734E-010
  7.900000000000001E-003    5.084230350530456E-010
  8.000000000000002E-003    6.973262891746451E-010
  8.100000000000001E-003    8.248849322099609E-010
  8.200000000000001E-003    8.694100849318906E-010
  8.300000000000002E-003    8.153375915404459E-010
  8.400000000000001E-003    6.550976274725440E-010
  8.500000000000002E-003    3.903539435750641E-010
  8.600000000000002E-003    3.247052580641089E-011
  8.700000000000001E-003   -3.978724454547343E-010
  8.800000000000002E-003   -8.719133119697224E-010
  8.900000000000002E-003   -1.354813220966315E-009
  9.000000000000001E-003   -1.808276325184123E-009
  9.100000000000002E-003   -2.193564872126880E-009
  9.200000000000002E-003   -2.474644931017567E-009
  9.300000000000001E-003   -2.621178410900368E-009
  9.400000000000002E-003   -2.611077941774608E-009
  9.500000000000001E-003   -2.432381148618660E-009
  9.600000000000001E-003   -2.084250836240707E-009
  9.700000000000002E-003   -1.576996222918216E-009
  9.800000000000001E-003   -9.310939240000891E-010
  9.900000000000001E-003   -1.752913979503632E-010
  1.000000000000000E-002    6.560327599297816E-010
  1.010000000000000E-002    1.525997057993031E-009
  1.020000000000000E-002    2.398521299041059E-009
  1.030000000000000E-002    3.241465574163764E-009
  1.040000000000000E-002    4.029267226975431E-009
  1.050000000000000E-002    4.744778847666178E-009
  1.060000000000000E-002    5.380077712996869E-009
  1.070000000000000E-002    5.936120118797442E-009
  1.080000000000000E-002    6.421225226212315E-009
  1.090000000000000E-002    6.848499648379901E-009
  1.100000000000000E-002    7.232432853524153E-009
  1.110000000000000E-002    7.584993107075204E-009
  1.120000000000000E-002    7.911643142793390E-009
  1.130000000000000E-002    8.207715129176028E-009
  1.140000000000000E-002    8.455604355016161E-009
  1.150000000000000E-002    8.623183534524516E-009
  1.160000000000000E-002    8.663748717878525E-009
  1.170000000000000E-002    8.517706358689184E-009
  1.180000000000000E-002    8.116029412413590E-009
  1.190000000000000E-002    7.385386237577184E-009
  1.200000000000000E-002    6.254651596774726E-009
  1.210000000000000E-002    4.662381362715222E-009
  1.220000000000000E-002    2.564737557565831E-009
  1.230000000000000E-002   -5.676192595450864E-011
  1.240000000000000E-002   -3.188259290930980E-009
  1.250000000000000E-002   -6.777949660918448E-009
  1.260000000000000E-002   -1.073229178310073E-008
  1.270000000000000E-002   -1.491441058261494E-008
  1.280000000000000E-002   -1.914486573828847E-008
  1.290000000000000E-002   -2.320470929297909E-008
  1.300000000000000E-002   -2.684060397548241E-008
  1.310000000000000E-002   -2.977161253947262E-008
  1.320000000000000E-002   -3.169700047718669E-008
  1.330000000000000E-002   -3.230437128645327E-008
  1.340000000000000E-002   -3.127745499654097E-008
  1.350000000000000E-002   -2.830269419930337E-008
  1.360000000000000E-002   -2.307411979005165E-008
  1.370000000000000E-002   -1.529590507259783E-008
  1.380000000000000E-002   -4.682469692684101E-009
  1.390000000000000E-002    9.044170624253438E-009
  1.400000000000000E-002    2.615928890145865E-008
  1.410000000000000E-002    4.694240686889003E-008
  1.420000000000000E-002    7.168562507249924E-008
  1.430000000000000E-002    1.007024230399510E-007
  1.440000000000000E-002    1.343361948970477E-007
  1.450000000000000E-002    1.729676610411673E-007
  1.460000000000000E-002    2.170202646615503E-007
  1.470000000000000E-002    2.669630409562722E-007
  1.480000000000000E-002    3.233106434254793E-007
  1.490000000000000E-002    3.866201545432871E-007
  1.500000000000000E-002    4.574850119350668E-007
  1.510000000000000E-002    5.365267390040509E-007
  1.520000000000000E-002    6.243847646474490E-007
  1.530000000000000E-002    7.217058927110149E-007
  1.540000000000000E-002    8.291335237354753E-007
  1.550000000000000E-002    9.472987282713099E-007
  1.560000000000000E-002    1.076813543777079E-006
  1.570000000000000E-002    1.218267650821873E-006
  1.580000000000000E-002    1.372228786560691E-006
  1.590000000000000E-002    1.539246842791162E-006
  1.600000000000000E-002    1.719862597332344E-006
  1.610000000000000E-002    1.914619323061254E-006
  1.620000000000000E-002    2.124077606292899E-006
  1.630000000000000E-002    2.348831117584959E-006
  1.640000000000000E-002    2.589523945672824E-006
  1.650000000000000E-002    2.846865457991005E-006
  1.660000000000000E-002    3.121644438864782E-006
  1.670000000000000E-002    3.414739383393193E-006
  1.680000000000000E-002    3.727126020903494E-006
  1.690000000000000E-002    4.059878225559869E-006
  1.700000000000000E-002    4.414166800229645E-006
  1.710000000000000E-002    4.791253502940911E-006
  1.720000000000000E-002    5.192482433492700E-006
  1.730000000000000E-002    5.619268916943435E-006
  1.740000000000000E-002    6.073088420566705E-006
  1.750000000000000E-002    6.555467226885843E-006
  1.760000000000000E-002    7.067974666844247E-006
  1.770000000000000E-002    7.612218733125551E-006
  1.780000000000000E-002    8.189848746457936E-006
  1.790000000000000E-002    8.802561821599065E-006
  1.800000000000000E-002    9.452112897692023E-006
  1.810000000000000E-002    1.014033877337603E-005
  1.820000000000000E-002    1.086917069909277E-005
  1.830000000000000E-002    1.164066570173507E-005
  1.840000000000000E-002    1.245702959305614E-005
  1.850000000000000E-002    1.332064371628935E-005
  1.860000000000000E-002    1.423408426610387E-005
  1.870000000000000E-002    1.520014552650769E-005