 -4.000000000000000E-002    0.000000000000000E+000
 -3.990000000000000E-002    0.000000000000000E+000
 -3.980000000000000E-002    0.000000000000000E+000
 -3.970000000000000E-002    0.000000000000000E+000
 -3.960000000000000E-002    0.000000000000000E+000
 -3.950000000000000E-002    0.000000000000000E+000
 -3.940000000000000E-002    0.000000000000000E+000
 -3.930000000000000E-002    0.000000000000000E+000
 -3.920000000000000E-002    0.000000000000000E+000
 -3.910000000000000E-002    0.000000000000000E+000
 -3.900000000000000E-002    0.000000000000000E+000
 -3.890000000000000E-002    0.000000000000000E+000
 -3.880000000000000E-002   -1.389417459034771E-041
 -3.870000000000000E-002   -3.735251669491323E-040
 -3.860000000000000E-002   -5.161652778248409E-039
 -3.850000000000000E-002   -4.883031041660244E-038
 -3.840000000000000E-002   -3.553621778070851E-037
 -3.830000000000000E-002   -2.119991593554345E-036
 -3.820000000000000E-002   -1.078880216849605E-035
 -3.810000000000000E-002   -4.812721016226770E-035
 -3.800000000000000E-002   -1.919164273139578E-034
 -3.790000000000000E-002   -6.942855965254472E-034
 -3.780000000000000E-002   -2.304742753632167E-033
 -3.770000000000000E-002   -7.083914930083763E-033
 -3.760000000000000E-002   -2.030539566536456E-032
 -3.750000000000000E-002   -5.459482802367694E-032
 -3.740000000000000E-002   -1.383282357319743E-031
 -3.730000000000000E-002   -3.315074094136369E-031
 -3.720000000000000E-002   -7.535891265433283E-031
 -3.710000000000000E-002   -1.628237440175523E-030
 -3.700000000000000E-002   -3.347903674496138E-030
 -3.690000000000000E-002   -6.552811462422279E-030
 -3.680000000000000E-002   -1.219867731202890E-029
 -3.670000000000000E-002   -2.154639529802226E-029
 -3.660000000000000E-002   -3.593347308718466E-029
 -3.650000000000000E-002   -5.607022856909126E-029
 -3.640000000000000E-002   -8.043541499103996E-029
 -3.630000000000000E-002   -1.021329446938397E-028
 -3.620000000000000E-002   -1.033508522228843E-028
 -3.610000000000000E-002   -4.641439117980776E-029
 -3.600000000000000E-002    1.394777185181515E-028
 -3.590000000000000E-002    5.761683598988579E-028
 -3.580000000000000E-002    1.457965707554696E-027
 -3.570000000000000E-002    3.072672887230539E-027
 -3.560000000000000E-002    5.813614256487542E-027
 -3.550000000000000E-002    1.016722191414103E-026
 -3.540000000000000E-002    1.665150375269804E-026
 -3.530000000000000E-002    2.566988957190369E-026
 -3.520000000000000E-002    3.723448982392996E-026
 -3.510000000000000E-002    5.050596919006764E-026
 -3.500000000000000E-002    6.310047049400422E-026
 -3.490000000000000E-002    7.013512680256537E-026
 -3.480000000000000E-002    6.303323928010380E-026
 -3.470000000000000E-002    2.820040071282102E-026
 -3.460000000000000E-002   -5.417607440877006E-026
 -3.450000000000000E-002   -2.107583550336888E-025
 -3.440000000000000E-002   -4.744230917257845E-025
 -3.430000000000000E-002   -8.814026206515883E-025
 -3.420000000000000E-002   -1.464984883400367E-024
 -3.410000000000000E-002   -2.244424912452130E-024
 -3.400000000000000E-002   -3.207798977513366E-024
 -3.390000000000000E-002   -4.287992125811667E-024
 -3.380000000000000E-002   -5.332013520238253E-024
 -3.370000000000000E-002   -6.065515353061656E-024
 -3.360000000000000E-002   -6.056970495747661E-024
 -3.350000000000000E-002   -4.689196401580682E-024
 -3.340000000000000E-002   -1.149950547490402E-024
 -3.330000000000000E-002    5.542593884506061E-024
 -3.320000000000000E-002    1.646033589700573E-023
 -3.310000000000000E-002    3.261056688376807E-023
 -3.300000000000000E-002    5.468697228004941E-023
 -3.290000000000000E-002    8.271340611634048E-023
 -3.280000000000000E-002    1.155813036531333E-022
 -3.270000000000000E-002    1.505029640091157E-022
 -3.260000000000000E-002    1.824330534514229E-022
 -3.250000000000000E-002    2.035489188890286E-022
 -3.240000000000000E-002    2.029227523142946E-022
 -3.230000000000000E-002    1.665616621914029E-022
 -3.220000000000000E-002    7.802110641223978E-023
 -3.210000000000000E-002   -8.018633148499628E-023
 -3.200000000000000E-002   -3.241918157664131E-022
 -3.190000000000000E-002   -6.652540040190938E-022
 -3.180000000000000E-002   -1.105130120378196E-021
 -3.170000000000000E-002   -1.630537039315156E-021
 -3.160000000000000E-002   -2.207171370390979E-021
 -3.150000000000000E-002   -2.774072859439253E-021
 -3.140000000000000E-002   -3.239443698573654E-021
 -3.130000000000000E-002   -3.479359704507236E-021
 -3.120000000000000E-002   -3.340992366351179E-021
 -3.110000000000000E-002   -2.652019337446666E-021
 -3.100000000000000E-002   -1.237626647830821E-021
 -3.090000000000000E-002    1.054066779800297E-021
 -3.080000000000000E-002    4.318340326822091E-021
 -3.070000000000000E-002    8.553572951214568E-021
 -3.060000000000000E-002    1.361771673541498E-020
 -3.050000000000000E-002    1.918698249503566E-020
 -3.040000000000000E-002    2.472417797418955E-020
 -3.030000000000000E-002    2.946582218611141E-020
 -3.020000000000000E-002    3.243793748650822E-020
 -3.010000000000000E-002    3.251026318395057E-020
 -3.000000000000000E-002    2.849622272375045E-020
 -2.990000000000000E-002    1.930201361705910E-020
 -2.980000000000000E-002    4.121841021960584E-021
 -2.970000000000000E-002   -1.733253507913057E-020
 -2.960000000000000E-002   -4.458947825438704E-020
 -2.950000000000000E-002   -7.619460803458024E-020
 -2.940000000000000E-002   -1.095494418907765E-019
 -2.930000000000000E-002   -1.408601779016158E-019
 -2.920000000000000E-002   -1.652468980844775E-019
 -2.910000000000000E-002   -1.770577039424763E-019
 -2.900000000000000E-002   -1.704180954636531E-019
 -2.890000000000000E-002   -1.400191681153199E-019
 -2.880000000000000E-002   -8.211522421440407E-020
 -2.870000000000000E-002    4.345404576279084E-021
 -2.860000000000000E-002    1.165789455291532E-019
 -2.850000000000000E-002    2.469852533705546E-019
 -2.840000000000000E-002    3.825374970235456E-019
 -2.830000000000000E-002    5.047727542241607E-019
 -2.820000000000000E-002    5.906057263314227E-019
 -2.810000000000000E-002    6.141473717379514E-019
 -2.800000000000000E-002    5.496182257621115E-019
 -2.790000000000000E-002    3.753211836958400E-019
 -2.780000000000000E-002    7.846000621605795E-020
 -2.770000000000000E-002   -3.396068346761297E-019
 -2.760000000000000E-002   -8.583006413894957E-019
 -2.750000000000000E-002   -1.433760428008281E-018
 -2.740000000000000E-002   -1.996733158816409E-018
 -2.730000000000000E-002   -2.453421845566372E-018
 -2.720000000000000E-002   -2.690198132403113E-018
 -2.710000000000000E-002   -2.582865537699266E-018
 -2.700000000000000E-002   -2.010718641348252E-018
 -2.690000000000000E-002   -8.750620966218678E-019
 -2.680000000000000E-002    8.788804200069438E-019
 -2.670000000000000E-002    3.238571673435113E-018
 -2.660000000000000E-002    6.102022335466186E-018
 -2.650000000000000E-002    9.260328048472192E-018
 -2.640000000000000E-002    1.238879995851831E-017
 -2.630000000000000E-002    1.505066644772588E-017
 -2.620000000000000E-002    1.671686220999681E-017
 -2.610000000000000E-002    1.680438546216532E-017
 -2.600000000000000E-002    1.473403156142482E-017
 -2.590000000000000E-002    1.000591921333705E-017
 -2.580000000000000E-002    2.288518514127899E-018
 -2.570000000000000E-002   -8.486154653355759E-018
 -2.560000000000000E-002   -2.203152096976012E-017
 -2.550000000000000E-002   -3.763227698246766E-017
 -2.540000000000000E-002   -5.410132906752472E-017
 -2.530000000000000E-002   -6.978214533912029E-017
 -2.520000000000000E-002   -8.260901873601106E-017
 -2.510000000000000E-002   -9.023401500327835E-017
 -2.500000000000000E-002   -9.022363313385606E-017
 -2.490000000000000E-002   -8.031985523967520E-017
 -2.480000000000000E-002   -5.875165767244146E-017
 -2.470000000000000E-002   -2.457277243991438E-017
 -2.460000000000000E-002    2.200802350003023E-017
 -2.450000000000000E-002    7.934514471608249E-017
 -2.440000000000000E-002    1.441686448566372E-016
 -2.430000000000000E-002    2.115368393414449E-016
 -2.420000000000000E-002    2.749692935266446E-016
 -2.410000000000000E-002    3.267884788113492E-016
 -2.400000000000000E-002    3.586810703360135E-016
 -2.390000000000000E-002    3.624655756798831E-016
 -2.380000000000000E-002    3.310260972886354E-016
 -2.370000000000000E-002    2.593434552589662E-016
 -2.360000000000000E-002    1.455268901278602E-016
 -2.350000000000000E-002   -8.271441697712752E-018
 -2.340000000000000E-002   -1.951900223013919E-016
 -2.330000000000000E-002   -4.033701828097109E-016
 -2.320000000000000E-002   -6.161626559946562E-016
 -2.310000000000000E-002   -8.129108542134048E-016
 -2.300000000000000E-002   -9.703454780484931E-016
 -2.290000000000000E-002   -1.064561542941242E-015
 -2.280000000000000E-002   -1.073474789236531E-015
 -2.270000000000000E-002   -9.795799804909338E-016
 -2.260000000000000E-002   -7.727615954977494E-016
 -2.250000000000000E-002   -4.528509501931539E-016
 -2.240000000000000E-002   -3.159033133754791E-017
 -2.230000000000000E-002    4.663315222363664E-016
 -2.220000000000000E-002    1.003474716146260E-015
 -2.210000000000000E-002    1.531289774538751E-015
 -2.200000000000000E-002    1.993301116035019E-015
 -2.190000000000000E-002    2.329772752333595E-015
 -2.180000000000000E-002    2.483615293465897E-015
 -2.170000000000000E-002    2.407106249049567E-015
 -2.160000000000000E-002    2.068828947959683E-015
 -2.150000000000000E-002    1.460091343076289E-015
 -2.140000000000000E-002    6.000144481645424E-016
 -2.130000000000000E-002   -4.615223281809799E-016
 -2.120000000000000E-002   -1.643798283284952E-015
 -2.110000000000000E-002   -2.838567304760795E-015
 -2.100000000000000E-002   -3.917008273918750E-015
 -2.090000000000000E-002   -4.740209509666120E-015
 -2.080000000000000E-002   -5.172642672619389E-015
 -2.070000000000000E-002   -5.097680971422009E-015
 -2.060000000000000E-002   -4.433803495672602E-015
 -2.050000000000000E-002   -3.149823630787481E-015
 -2.040000000000000E-002   -1.277290202104055E-015
 -2.030000000000000E-002    1.081792798437048E-015
 -2.020000000000000E-002    3.753589662926969E-015
 -2.010000000000000E-002    6.498661545140997E-015
 -2.000000000000000E-002    9.026411712843201E-015
 -1.990000000000000E-002    1.101761776446975E-014
 -1.980000000000000E-002    1.215396486530645E-014
 -1.970000000000000E-002    1.215259352486885E-014
 -1.960000000000000E-002    1.080276883670978E-014
 -1.950000000000000E-002    8.001104483050688E-015
 -1.940000000000000E-002    3.781303263235437E-015
 -1.930000000000000E-002   -1.665674051619568E-015
 -1.920000000000000E-002   -7.984739487573418E-015
 -1.910000000000000E-002   -1.466603564738237E-014
 -1.900000000000000E-002   -2.107220751281264E-014
 -1.890000000000000E-002   -2.648357918543358E-014
 -1.880000000000000E-002   -3.015944680776841E-014
 -1.870000000000000E-002   -3.141163156066203E-014
 -1.860000000000000E-002   -2.968452304763970E-014
 -1.850000000000000E-002   -2.463440454327802E-014
 -1.840000000000000E-002   -1.619961010564551E-014
 -1.830000000000000E-002   -4.652871980074483E-015
 -1.820000000000000E-002    9.372321413775967E-015
 -1.810000000000000E-002    2.488812850699799E-014
 -1.800000000000000E-002    4.059595402343073E-014
 -1.790000000000000E-002    5.496827997215198E-014
 -1.780000000000000E-002    6.636654427011942E-014
 -1.770000000000000E-002    7.318823665387297E-014
 -1.760000000000000E-002    7.403283074308795E-014
 -1.750000000000000E-002    6.787259498083694E-014
 -1.740000000000000E-002    5.421176899827880E-014
 -1.730000000000000E-002    3.321640673265735E-014
 -1.720000000000000E-002    5.797498346438800E-015
 -1.710000000000000E-002   -2.636765669145760E-014
 -1.700000000000000E-002   -6.088695069901514E-014
 -1.690000000000000E-002   -9.478332878741415E-014
 -1.680000000000000E-002   -1.247010595597773E-013
 -1.670000000000000E-002   -1.471791016532436E-013
 -1.660000000000000E-002   -1.589739391872866E-013
 -1.650000000000000E-002   -1.574068885629738E-013
 -1.640000000000000E-002   -1.407051581575266E-013
 -1.630000000000000E-002   -1.083021600648709E-013
 -1.620000000000000E-002   -6.106197665503225E-014
 -1.610000000000000E-002   -1.395343257103209E-015
 -1.600000000000000E-002    6.675881602055683E-014
 -1.590000000000000E-002    1.381032968948048E-013
 -1.580000000000000E-002    2.063073490889228E-013
 -1.570000000000000E-002    2.644760708825860E-013
 -1.560000000000000E-002    3.057377290402698E-013
 -1.550000000000000E-002    3.239076205101006E-013
 -1.540000000000000E-002    3.141742672656444E-013
 -1.530000000000000E-002    2.737439051218321E-013
 -1.520000000000000E-002    2.023750405364970E-013
 -1.510000000000000E-002    1.027367639688198E-013
 -1.500000000000000E-002   -1.946705228876431E-014
 -1.490000000000000E-002   -1.556507677274133E-013
 -1.480000000000000E-002   -2.947977247050856E-013
 -1.470000000000000E-002   -4.242041633787811E-013
 -1.460000000000000E-002   -5.304815242495425E-013
 -1.450000000000000E-002   -6.007533035232318E-013
 -1.440000000000000E-002   -6.239546379352772E-013
 -1.430000000000000E-002   -5.921221683467258E-013
 -1.420000000000000E-002   -5.015466273434584E-013
 -1.410000000000000E-002   -3.536591426283675E-013
 -1.400000000000000E-002   -1.555314997650355E-013
 -1.390000000000000E-002    8.010811015817805E-014
 -1.380000000000000E-002    3.354057721193323E-013
 -1.370000000000000E-002    5.884759670282500E-013
 -1.360000000000000E-002    8.150232309373752E-013
 -1.350000000000000E-002    9.903991540097590E-013
 -1.340000000000000E-002    1.091947589748916E-012
 -1.330000000000000E-002    1.101445329685825E-012
 -1.320000000000000E-002    1.007410908094630E-012
 -1.310000000000000E-002    8.070386296416822E-013
 -1.300000000000000E-002    5.075221993337057E-013
 -1.290000000000000E-002    1.265618665988488E-013
 -1.280000000000000E-002   -3.080946698847812E-013
 -1.270000000000000E-002   -7.601529574966923E-013
 -1.260000000000000E-002   -1.187295146809256E-012
 -1.250000000000000E-002   -1.544604105822054E-012
 -1.240000000000000E-002   -1.788660048473001E-012
 -1.230000000000000E-002   -1.881993518401130E-012
 -1.220000000000000E-002   -1.797496776542574E-012
 -1.210000000000000E-002   -1.522355130832518E-012
 -1.200000000000000E-002   -1.061052252604130E-012
 -1.190000000000000E-002   -4.370418413516177E-013
 -1.180000000000000E-002    3.072444094311108E-013
 -1.170000000000000E-002    1.112253105517627E-012
 -1.160000000000000E-002    1.905074931269816E-012
 -1.150000000000000E-002    2.604981982633280E-012
 -1.140000000000000E-002    3.130403081587105E-012
 -1.130000000000000E-002    3.406830609035372E-012
 -1.120000000000000E-002    3.374987755817747E-012
 -1.110000000000000E-002    2.998494601237367E-012
 -1.100000000000000E-002    2.270212865936893E-012
 -1.090000000000000E-002    1.216499996810529E-012
 -1.080000000000000E-002   -1.012967042643989E-013
 -1.070000000000000E-002   -1.588572095272578E-012
 -1.060000000000000E-002   -3.122633968255802E-012
 -1.050000000000000E-002   -4.561206170737872E-012
 -1.040000000000000E-002   -5.753819487742667E-012
 -1.030000000000000E-002   -6.555318541003113E-012
 -1.020000000000000E-002   -6.840414519543009E-012
 -1.010000000000000E-002   -6.517986134185112E-012
 -1.000000000000000E-002   -5.543719936472964E-012
 -9.899999999999999E-003   -3.929678284233462E-012
 -9.800000000000000E-003   -1.749530048918068E-012
 -9.699999999999999E-003    8.615346939244971E-013
 -9.599999999999999E-003    3.712785303256933E-012
 -9.500000000000000E-003    6.569871239886468E-012
 -9.399999999999999E-003    9.172193690382939E-012
 -9.299999999999999E-003    1.125460295110566E-011
 -9.200000000000000E-003    1.257182272547742E-011
 -9.099999999999999E-003    1.292351624421471E-011
 -8.999999999999999E-003    1.217765758205372E-011
 -8.900000000000000E-003    1.028979267213887E-011
 -8.799999999999999E-003    7.315917448830930E-012
 -8.699999999999999E-003    3.417117452982747E-012
 -8.600000000000000E-003   -1.145324905459888E-012
 -8.499999999999999E-003   -6.024791167534695E-012
 -8.399999999999999E-003   -1.081371815796482E-011
 -8.300000000000000E-003   -1.507607971877454E-011
 -8.199999999999999E-003   -1.838561922577832E-011
 -8.100000000000000E-003   -2.036669732618965E-011
 -8.000000000000000E-003   -2.073405532682303E-011
 -7.899999999999999E-003   -1.932757227384856E-011
 -7.800000000000000E-003   -1.613818763999026E-011
 -7.699999999999999E-003   -1.132167978928735E-011
 -7.599999999999999E-003   -5.197860893476697E-012
 -7.499999999999999E-003    1.766058730526749E-012
 -7.399999999999999E-003    8.987756048822300E-012
 -7.299999999999999E-003    1.581597107610333E-011
 -7.199999999999999E-003    2.158735752674702E-011
 -7.100000000000000E-003    2.568938211933818E-011
 -6.999999999999999E-003    2.762367940858555E-011
 -6.899999999999999E-003    2.706371522556844E-011
 -6.800000000000000E-003    2.390058410927997E-011
 -6.699999999999999E-003    1.827142528743825E-011
 -6.599999999999999E-003    1.056610162763221E-011
 -6.499999999999999E-003    1.409580502973493E-012
 -6.399999999999999E-003   -8.380381161463308E-012
 -6.299999999999999E-003   -1.785829817668619E-011
 -6.199999999999999E-003   -2.603431884717485E-011
 -6.100000000000000E-003   -3.196929775706166E-011
 -5.999999999999999E-003   -3.487318802491232E-011
 -5.899999999999999E-003   -3.419733443465581E-011
 -5.800000000000000E-003   -2.971098691381996E-011
 -5.699999999999999E-003   -2.155298722058218E-011
 -5.599999999999999E-003   -1.025130990844431E-011
 -5.499999999999999E-003    3.294352496360164E-012
 -5.399999999999999E-003    1.786865941458358E-011
 -5.299999999999999E-003    3.203325230762956E-011
 -5.199999999999999E-003    4.425011952785040E-011
 -5.099999999999999E-003    5.302633410432389E-011
 -4.999999999999999E-003    5.706779143127848E-011
 -4.899999999999999E-003    5.542768736389537E-011
 -4.799999999999999E-003    4.763460664117864E-011
 -4.699999999999999E-003    3.378578727181683E-011
 -4.599999999999999E-003    1.459330882997592E-011
 -4.499999999999999E-003   -8.625628952231454E-012
 -4.399999999999999E-003   -3.401846733640198E-011
 -4.299999999999999E-003   -5.932564295803399E-011
 -4.199999999999999E-003   -8.206034091263516E-011
 -4.099999999999999E-003   -9.972690036962196E-011
 -3.999999999999999E-003   -1.100600424289083E-010
 -3.899999999999999E-003   -1.112638263797572E-010
 -3.799999999999999E-003   -1.022272017460529E-010
 -3.699999999999999E-003   -8.269350609697680E-011
 -3.599999999999999E-003   -5.336375053042969E-011
 -3.499999999999999E-003   -1.591803867806794E-011
 -3.399999999999999E-003    2.705359671052369E-011
 -3.299999999999999E-003    7.221207743971794E-011
 -3.199999999999999E-003    1.157141961412247E-010
 -3.099999999999999E-003    1.535248963903020E-010
 -2.999999999999999E-003    1.817731694287479E-010
 -2.899999999999999E-003    1.971211519606579E-010
 -2.799999999999999E-003    1.971127470205042E-010
 -2.699999999999999E-003    1.804674324121207E-010
 -2.599999999999999E-003    1.472873292253263E-010
 -2.499999999999999E-003    9.915176251495554E-011
 -2.399999999999999E-003    3.908214271369646E-011
 -2.299999999999999E-003   -2.862885647304967E-011
 -2.199999999999999E-003   -9.871732179469439E-011
 -2.099999999999999E-003   -1.653585435383622E-010
 -1.999999999999999E-003   -2.226562988321579E-010
 -1.899999999999999E-003   -2.651709863537540E-010
 -1.799999999999999E-003   -2.884391795534457E-010
 -1.699999999999999E-003   -2.894353990879538E-010
 -1.599999999999999E-003   -2.669289652916820E-010
 -1.499999999999999E-003   -2.216957461476084E-010
 -1.399999999999999E-003   -1.565558573909577E-010
 -1.299999999999999E-003   -7.622324826266744E-011
 -1.199999999999999E-003    1.302960986832893E-011
 -1.099999999999999E-003    1.038714670617150E-010
 -9.999999999999989E-004    1.885375891212322E-010
 -8.999999999999990E-004    2.595288195591438E-010
 -7.999999999999990E-004    3.103210554933159E-010
 -6.999999999999989E-004    3.360177123542242E-010
 -5.999999999999990E-004    3.338789262549264E-010
 -4.999999999999989E-004    3.036695046004778E-010
 -3.999999999999989E-004    2.477813202676617E-010
 -2.999999999999989E-004    1.711062018689874E-010
 -1.999999999999989E-004    8.065744176753593E-011
 -9.999999999999892E-005   -1.503658099604863E-011
  1.084202172485504E-018   -1.067198366579488E-010
  1.000000000000011E-004   -1.853090208581274E-010
  2.000000000000011E-004   -2.428239253620641E-010
  3.000000000000011E-004   -2.732563673152869E-010
  4.000000000000011E-004   -2.732867784420456E-010
  5.000000000000011E-004   -2.427673403797705E-010
  6.000000000000011E-004   -1.849076160270332E-010
  7.000000000000011E-004   -1.061258976176019E-010
  8.000000000000011E-004   -1.555870693383135E-011
  9.000000000000012E-004    7.574438836547359E-011
  1.000000000000001E-003    1.558806330169510E-010
  1.100000000000001E-003    2.133190871562615E-010
  1.200000000000001E-003    2.381789712717347E-010
  1.300000000000001E-003    2.234363546066565E-010
  1.400000000000001E-003    1.659322096411925E-010
  1.500000000000001E-003    6.706708794452036E-011
  1.600000000000001E-003   -6.691130879673632E-011
  1.700000000000001E-003   -2.250861128702744E-010
  1.800000000000001E-003   -3.925337436129832E-010
  1.900000000000001E-003   -5.514412976274459E-010
  2.000000000000001E-003   -6.826061502743270E-010
  2.100000000000001E-003   -7.672004967780632E-010
  2.200000000000001E-003   -7.886512113169862E-010
  2.300000000000001E-003   -7.344643871520733E-010
  2.400000000000001E-003   -5.978172521586156E-010
  2.500000000000001E-003   -3.787507205646481E-010
  2.600000000000001E-003   -8.482254882662911E-011
  2.700000000000001E-003    2.688751573047506E-010
  2.800000000000001E-003    6.603816337858167E-010
  2.900000000000001E-003    1.062195833161089E-009
  3.000000000000001E-003    1.443192011365481E-009
  3.100000000000001E-003    1.770981266518164E-009
  3.200000000000001E-003    2.014534313792078E-009
  3.300000000000001E-003    2.146843810493198E-009
  3.400000000000001E-003    2.147389511643009E-009
  3.500000000000001E-003    2.004178462033696E-009
  3.600000000000001E-003    1.715157436822402E-009
  3.700000000000001E-003    1.288845329066778E-009
  3.800000000000001E-003    7.440989471800102E-010
  3.900000000000001E-003    1.089979492211913E-010
  4.000000000000001E-003   -5.810799399239892E-010
  4.100000000000001E-003   -1.286046278004001E-009
  4.200000000000001E-003   -1.964140631676629E-009
  4.300000000000001E-003   -2.575154794730060E-009
  4.400000000000001E-003   -3.083553096514030E-009
  4.500000000000001E-003   -3.461199488110343E-009
  4.600000000000002E-003   -3.689427389722952E-009
  4.700000000000001E-003   -3.760245160962780E-009
  4.800000000000001E-003   -3.676543133541165E-009
  4.900000000000002E-003   -3.451262392830158E-009
  5.000000000000001E-003   -3.105584966982335E-009
  5.100000000000001E-003   -2.666303825548303E-009
  5.200000000000001E-003   -2.162615520559066E-009
  5.300000000000002E-003   -1.622650800655801E-009
  5.400000000000001E-003   -1.070093194011091E-009
  5.500000000000001E-003   -5.212460850977777E-010
  5.600000000000002E-003    1.711890344278620E-011
  5.700000000000001E-003    5.488632845832980E-010
  5.800000000000001E-003    1.088349118287687E-009
  5.900000000000002E-003    1.659007831685774E-009
  6.000000000000001E-003    2.290666014477485E-009
  6.100000000000001E-003    3.015812966173171E-009
  6.200000000000002E-003    3.865107691241080E-009
  6.300000000000002E-003    4.862520243336713E-009
  6.400000000000001E-003    6.020554985116650E-009
  6.500000000000001E-003    7.336034606245637E-009
  6.600000000000002E-003    8.786894403942104E-009
  6.700000000000001E-003    1.033037051319545E-008
  6.800000000000001E-003    1.190287054668166E-008
  6.900000000000002E-003    1.342166814467602E-008
  7.000000000000001E-003    1.478841379193283E-008
  7.100000000000001E-003    1.589430201620125E-008
  7.200000000000002E-003    1.662656009302978E-008
  7.300000000000002E-003    1.687582728789186E-008
  7.400000000000001E-003    1.654386608335218E-008
  7.500000000000001E-003    1.555103283503804E-008
  7.600000000000002E-003    1.384291828707136E-008
  7.700000000000001E-003    1.139563579515355E-008
  7.800000000000001E-003    8.219352581077806E-009
  7.900000000000001E-003    4.359791678069828E-009
  8.000000000000002E-003   -1.023767161460395E-010
  8.100000000000001E-003   -5.054128318142780E-009
  8.200000000000001E-003   -1.035438505346128E-008
  8.300000000000002E-003   -1.583955843895663E-008
  8.400000000000001E-003   -2.132971794624597E-008
  8.500000000000002E-003   -2.663477201854608E-008
  8.600000000000002E-003   -3.155991846455460E-008
  8.700000000000001E-003   -3.590982963164722E-008
  8.800000000000002E-003   -3.949097141637268E-008
  8.900000000000002E-003   -4.211179474965255E-008
  9.000000000000001E-003   -4.358058073712849E-008
  9.100000000000002E-003   -4.370110763221880E-008
  9.200000000000002E-003   -4.226641793862260E-008
  9.300000000000001E-003   -3.905126834356898E-008
  9.400000000000002E-003   -3.380378844157056E-008
  9.500000000000001E-003   -2.623735771408825E-008
  9.600000000000001E-003   -1.602339901255216E-008
  9.700000000000002E-003   -2.785847416630930E-009
  9.800000000000001E-003    1.390203723479748E-008
  9.900000000000001E-003    3.451793379949571E-008
  1.000000000000000E-002    5.958782812227154E-008
  1.010000000000000E-002    8.968029722831187E-008
  1.020000000000000E-002    1.253983783804388E-007
  1.030000000000000E-002    1.673692389611754E-007
  1.040000000000000E-002    2.162329708087293E-007
  1.050000000000000E-002    2.726309156598763E-007
  1.060000000000000E-002    3.371952430534436E-007
  1.070000000000000E-002    4.105404293934242E-007
  1.080000000000000E-002    4.932576142628974E-007
  1.090000000000000E-002    5.859123804076725E-007
  1.100000000000000E-002    6.890470050216388E-007
  1.110000000000000E-002    8.031863770408754E-007
  1.120000000000000E-002    9.288481791685911E-007
  1.130000000000000E-002    1.066555966094693E-006
  1.140000000000000E-002    1.216854999843017E-006
  1.150000000000000E-002    1.380328573117943E-006
  1.160000000000000E-002    1.557615490178003E-006
  1.170000000000000E-002    1.749424924229252E-006
  1.180000000000000E-002    1.956549733519657E-006
  1.190000000000000E-002    2.179876120906158E-006
  1.200000000000000E-002    2.420388263938217E-006
  1.210000000000000E-002    2.679170072791307E-006
  1.220000000000000E-002    2.957401433908175E-006
  1.230000000000000E-002    3.256351079039372E-006
  1.240000000000000E-002    3.577366890163049E-006
  1.250000000000000E-002    3.921863787290430E-006
  1.260000000000000E-002    4.291312535729410E-006
  1.270000000000000E-002    4.687228794773168E-006
  1.280000000000000E-002    5.111165607846698E-006
  1.290000000000000E-002    5.564708583988436E-006
  1.300000000000000E-002    6.049477724173836E-006
  1.310000000000000E-002    6.567133620711358E-006
  1.320000000000000E-002    7.119385997092360E-006
  1.330000000000000E-002    7.708014420110115E-006
  1.340000000000000E-002    8.334884749029975E-006
  1.350000000000000E-002    9.001973039778753E-006
  1.360000000000000E-002    9.711388375849373E-006
  1.370000000000000E-002    1.046539814206497E-005
  1.380000000000000E-002    1.126644889897530E-005
  1.390000000000000E-002    1.211717901117180E-005
  1.400000000000000E-002    1.302043843416124E-005
  1.410000000000000E-002    1.397928867526696E-005
  1.420000000000000E-002    1.499701162827877E-005
  1.430000000000000E-002    1.607710086414079E-005
  1.440000000000000E-002    1.722325576729387E-005
  1.450000000000000E-002    1.843937026519669E-005
  1.460000000000000E-002    1.972952297805049E-005
  1.470000000000000E-002    2.109796362004505E-005
  1.480000000000000E-002    2.254910795640244E-005
  1.490000000000000E-002    2.408753617384317E-005
  1.500000000000000E-002    2.571799108412199E-005
  1.510000000000000E-002    2.744539052362633E-005
  1.520000000000000E-002    2.927484241269167E-005
  1.530000000000000E-002    3.121166919522774E-005
  1.540000000000000E-002    3.326143901406878E-005
  1.550000000000000E-002    3.542999619008710E-005
  1.560000000000000E-002    3.772350286589966E-005
  1.570000000000000E-002    4.014846823347711E-005
  1.580000000000000E-002    4.271178974209619E-005
  1.590000000000000E-002    4.542078547769657E-005
  1.600000000000000E-002    4.828321543539556E-005
  1.610000000000000E-002    5.130730640325890E-005
  1.620000000000000E-002    5.450175804810687E-005
  1.630000000000000E-002    5.787575163696607E-005
  1.640000000000000E-002    6.143895142818315E-005
  1.650000000000000E-002    6.520150139407882E-005
  1.660000000000000E-002    6.917401686101733E-005
  1.670000000000000E-002    7.336756802658054E-005
  1.680000000000000E-002    7.779369364585610E-005
  1.690000000000000E-002    8.246439579615426E-005
  1.700000000000000E-002    8.739215006996383E-005
  1.710000000000000E-002    9.258991572751469E-005
  1.720000000000000E-002    9.807117913700154E-005
  1.730000000000000E-002    1.038499760113910E-004
  1.740000000000000E-002    1.099409528381086E-004
  1.750000000000000E-002    1.163594252341278E-004
  1.760000000000000E-002    1.231214051763945E-004
  1.770000000000000E-002    1.302436912426925E-004
  1.780000000000000E-002    1.377439289362584E-004
  1.790000000000000E-002    1.456406505495719E-004
  1.800000000000000E-002    1.539533293044429E-004
  1.810000000000000E-002    1.627024473810854E-004
  1.820000000000000E-002    1.719094864538162E-004
  1.830000000000000E-002    1.815970020543569E-004
  1.840000000000000E-002    1.917885823509459E-004
  1.850000000000000E-002    2.025088785106143E-004
  1.860000000000000E-002    2.137836472396971E-004
  1.870000000000000E-002    2.256396677302237E-004