 -4.000000000000000E-002    0.000000000000000E+000
 -3.990000000000000E-002    0.000000000000000E+000
 -3.980000000000000E-002    0.000000000000000E+000
 -3.970000000000000E-002    0.000000000000000E+000
 -3.960000000000000E-002    0.000000000000000E+000
 -3.950000000000000E-002    0.000000000000000E+000
 -3.940000000000000E-002    0.000000000000000E+000
 -3.930000000000000E-002    0.000000000000000E+000
 -3.920000000000000E-002    0.000000000000000E+000
 -3.910000000000000E-002    0.000000000000000E+000
 -3.900000000000000E-002    0.000000000000000E+000
 -3.890000000000000E-002    0.000000000000000E+000
 -3.880000000000000E-002    0.000000000000000E+000
 -3.870000000000000E-002    0.000000000000000E+000
 -3.860000000000000E-002    0.000000000000000E+000
 -3.850000000000000E-002    0.000000000000000E+000
 -3.840000000000000E-002    0.000000000000000E+000
 -3.830000000000000E-002    0.000000000000000E+000
 -3.820000000000000E-002    0.000000000000000E+000
 -3.810000000000000E-002    0.000000000000000E+000
 -3.800000000000000E-002    0.000000000000000E+000
 -3.790000000000000E-002    0.000000000000000E+000
 -3.780000000000000E-002    0.000000000000000E+000
 -3.770000000000000E-002    0.000000000000000E+000
 -3.760000000000000E-002    0.000000000000000E+000
 -3.750000000000000E-002    0.000000000000000E+000
 -3.740000000000000E-002    0.000000000000000E+000
 -3.730000000000000E-002    0.000000000000000E+000
 -3.720000000000000E-002    0.000000000000000E+000
 -3.710000000000000E-002    0.000000000000000E+000
 -3.700000000000000E-002    0.000000000000000E+000
 -3.690000000000000E-002    0.000000000000000E+000
 -3.680000000000000E-002    0.000000000000000E+000
 -3.670000000000000E-002    0.000000000000000E+000
 -3.660000000000000E-002    0.000000000000000E+000
 -3.650000000000000E-002    0.000000000000000E+000
 -3.640000000000000E-002    0.000000000000000E+000
 -3.630000000000000E-002    0.000000000000000E+000
 -3.620000000000000E-002    0.000000000000000E+000
 -3.610000000000000E-002    0.000000000000000E+000
 -3.600000000000000E-002    0.000000000000000E+000
 -3.590000000000000E-002    0.000000000000000E+000
 -3.580000000000000E-002    0.000000000000000E+000
 -3.570000000000000E-002    0.000000000000000E+000
 -3.560000000000000E-002    0.000000000000000E+000
 -3.550000000000000E-002    0.000000000000000E+000
 -3.540000000000000E-002    0.000000000000000E+000
 -3.530000000000000E-002    0.000000000000000E+000
 -3.520000000000000E-002    0.000000000000000E+000
 -3.510000000000000E-002    0.000000000000000E+000
 -3.500000000000000E-002    0.000000000000000E+000
 -3.490000000000000E-002    0.000000000000000E+000
 -3.480000000000000E-002    1.924390591266381E-047
 -3.470000000000000E-002    5.793193039233079E-047
 -3.460000000000000E-002    2.842460799291295E-047
 -3.450000000000000E-002    3.740509741882273E-047
 -3.440000000000000E-002    6.562949275739631E-047
 -3.430000000000000E-002    5.793193039233079E-047
 -3.420000000000000E-002   -4.618537419039314E-047
 -3.410000000000000E-002   -8.861267755630669E-046
 -3.400000000000000E-002   -7.466396825831946E-046
 -3.390000000000000E-002   -1.266923085001293E-045
 -3.380000000000000E-002   -2.927538125195381E-045
 -3.370000000000000E-002   -5.979187397439012E-045
 -3.360000000000000E-002   -1.065828389827200E-044
 -3.350000000000000E-002   -1.904167812868138E-044
 -3.340000000000000E-002   -3.252577786040792E-044
 -3.330000000000000E-002   -5.491175289021597E-044
 -3.320000000000000E-002   -8.628995308978192E-044
 -3.310000000000000E-002   -1.263884587421356E-043
 -3.300000000000000E-002   -1.707392910020959E-043
 -3.290000000000000E-002   -2.013716625469651E-043
 -3.280000000000000E-002   -1.808770472620614E-043
 -3.270000000000000E-002   -3.693125587074421E-044
 -3.260000000000000E-002    3.576319686189631E-043
 -3.250000000000000E-002    1.203461472805958E-042
 -3.240000000000000E-002    2.800166653809045E-042
 -3.230000000000000E-002    5.552023665389414E-042
 -3.220000000000000E-002    9.949146567025019E-042
 -3.210000000000000E-002    1.648529958417616E-041
 -3.200000000000000E-002    2.546454555855907E-041
 -3.190000000000000E-002    3.664421388776142E-041
 -3.180000000000000E-002    4.862423500549898E-041
 -3.170000000000000E-002    5.791461322428048E-041
 -3.160000000000000E-002    5.762234281135075E-041
 -3.150000000000000E-002    3.576867502648013E-041
 -3.140000000000000E-002   -2.661076595528903E-041
 -3.130000000000000E-002   -1.572054671463529E-040
 -3.120000000000000E-002   -3.932642423020180E-040
 -3.110000000000000E-002   -7.802648887951069E-040
 -3.100000000000000E-002   -1.366533363101681E-039
 -3.090000000000000E-002   -2.191183457102595E-039
 -3.080000000000000E-002   -3.262114730276603E-039
 -3.070000000000000E-002   -4.520395159600572E-039
 -3.060000000000000E-002   -5.787762997944263E-039
 -3.050000000000000E-002   -6.695517684809738E-039
 -3.040000000000000E-002   -6.596748420956997E-039
 -3.030000000000000E-002   -4.470239522634164E-039
 -3.020000000000000E-002    1.165397532963362E-039
 -3.010000000000000E-002    1.229435337010458E-038
 -3.000000000000000E-002    3.135119892657753E-038
 -2.990000000000000E-002    6.099954565411404E-038
 -2.980000000000000E-002    1.036454027876062E-037
 -2.970000000000000E-002    1.605715244752535E-037
 -2.960000000000000E-002    2.305758679117055E-037
 -2.950000000000000E-002    3.080184881654821E-037
 -2.940000000000000E-002    3.802489055096786E-037
 -2.930000000000000E-002    4.245115911285873E-037
 -2.920000000000000E-002    4.046378594465888E-037
 -2.910000000000000E-002    2.681440238363916E-037
 -2.900000000000000E-002   -5.523777513345522E-038
 -2.890000000000000E-002   -6.520538250770511E-037
 -2.880000000000000E-002   -1.618573896596802E-036
 -2.870000000000000E-002   -3.046596512621643E-036
 -2.860000000000000E-002   -4.998763422933601E-036
 -2.850000000000000E-002   -7.470651583492819E-036
 -2.840000000000000E-002   -1.033778445632671E-035
 -2.830000000000000E-002   -1.328772612526608E-035
 -2.820000000000000E-002   -1.574080597777156E-035
 -2.810000000000000E-002   -1.676825295294255E-035
 -2.800000000000000E-002   -1.502379696863257E-035
 -2.790000000000000E-002   -8.713643880681708E-036
 -2.780000000000000E-002    4.360180776932859E-036
 -2.770000000000000E-002    2.663829709991928E-035
 -2.760000000000000E-002    6.047249438049227E-035
 -2.750000000000000E-002    1.075716179145707E-034
 -2.740000000000000E-002    1.681819440542110E-034
 -2.730000000000000E-002    2.399850255688679E-034
 -2.720000000000000E-002    3.167426027046467E-034
 -2.710000000000000E-002    3.867934870897614E-034
 -2.700000000000000E-002    4.316057654571552E-034
 -2.690000000000000E-002    4.247207175426504E-034
 -2.680000000000000E-002    3.315631507633138E-034
 -2.670000000000000E-002    1.107407311056469E-034
 -2.660000000000000E-002   -2.824431519608368E-034
 -2.650000000000000E-002   -8.895045334982073E-034
 -2.640000000000000E-002   -1.738672253472901E-033
 -2.630000000000000E-002   -2.830805342727922E-033
 -2.620000000000000E-002   -4.121565170670425E-033
 -2.610000000000000E-002   -5.500945705769491E-033
 -2.600000000000000E-002   -6.772460603505796E-033
 -2.590000000000000E-002   -7.635833606615665E-033
 -2.580000000000000E-002   -7.678673282943358E-033
 -2.570000000000000E-002   -6.384250313485309E-033
 -2.560000000000000E-002   -3.163671247478418E-033
 -2.550000000000000E-002    2.578919833049576E-033
 -2.540000000000000E-002    1.134079320314376E-032
 -2.530000000000000E-002    2.337062543520132E-032
 -2.520000000000000E-002    3.847616534841052E-032
 -2.510000000000000E-002    5.580087449455462E-032
 -2.500000000000000E-002    7.359343676536045E-032
 -2.490000000000000E-002    8.900896432660796E-032
 -2.480000000000000E-002    9.799699240467477E-032
 -2.470000000000000E-002    9.534674643182424E-032
 -2.460000000000000E-002    7.496957967089380E-032
 -2.450000000000000E-002    3.050058473447561E-032
 -2.440000000000000E-002   -4.371396355820907E-032
 -2.430000000000000E-002   -1.512098497791218E-031
 -2.420000000000000E-002   -2.916052414648605E-031
 -2.410000000000000E-002   -4.585211451544354E-031
 -2.400000000000000E-002   -6.374477698512691E-031
 -2.390000000000000E-002   -8.039140081238907E-031
 -2.380000000000000E-002   -9.224568054587378E-031
 -2.370000000000000E-002   -9.470041926779884E-031
 -2.360000000000000E-002   -8.233562966341696E-031
 -2.350000000000000E-002   -4.944355895165969E-031
 -2.340000000000000E-002    9.116771434953019E-032
 -2.330000000000000E-002    9.671531180528952E-031
 -2.320000000000000E-002    2.134278127021734E-030
 -2.310000000000000E-002    3.542970571662942E-030
 -2.300000000000000E-002    5.075746664723427E-030
 -2.290000000000000E-002    6.532417862128561E-030
 -2.280000000000000E-002    7.622114907095693E-030
 -2.270000000000000E-002    7.966978299537843E-030
 -2.260000000000000E-002    7.122810771597731E-030
 -2.250000000000000E-002    4.621652758855203E-030
 -2.240000000000000E-002    3.999093224158740E-032
 -2.230000000000000E-002   -6.906411140115722E-030
 -2.220000000000000E-002   -1.624390711565155E-029
 -2.210000000000000E-002   -2.760714859427337E-029
 -2.200000000000000E-002   -4.010510295067249E-029
 -2.190000000000000E-002   -5.220953244598183E-029
 -2.180000000000000E-002   -6.169525541305205E-029
 -2.170000000000000E-002   -6.566748570378697E-029
 -2.160000000000000E-002   -6.071289120103505E-029
 -2.150000000000000E-002   -4.320881306206494E-029
 -2.140000000000000E-002   -9.814259345132594E-030
 -2.130000000000000E-002    4.185167934746839E-029
 -2.120000000000000E-002    1.123673892286447E-028
 -2.110000000000000E-002    1.995617404672434E-028
 -2.100000000000000E-002    2.975669019811525E-028
 -2.090000000000000E-002    3.960225088428879E-028
 -2.080000000000000E-002    4.796260855156496E-028
 -2.070000000000000E-002    5.282569961907349E-028
 -2.060000000000000E-002    5.179121835848068E-028
 -2.050000000000000E-002    4.226652811813440E-028
 -2.040000000000000E-002    2.177989556549362E-028
 -2.030000000000000E-002   -1.158655942907960E-028
 -2.020000000000000E-002   -5.865850463119056E-028
 -2.010000000000000E-002   -1.185630412511579E-027
 -2.000000000000000E-002   -1.881178520870294E-027
 -1.990000000000000E-002   -2.613066605856232E-027
 -1.980000000000000E-002   -3.289565908619746E-027
 -1.970000000000000E-002   -3.787510508922785E-027
 -1.960000000000000E-002   -3.957148009154345E-027
 -1.950000000000000E-002   -3.632947184846056E-027
 -1.940000000000000E-002   -2.651180013990951E-027
 -1.930000000000000E-002   -8.744342928445613E-028
 -1.920000000000000E-002    1.777744971649946E-027
 -1.910000000000000E-002    5.294158925566066E-027
 -1.900000000000000E-002    9.536628460521209E-027
 -1.890000000000000E-002    1.420895666869241E-026
 -1.880000000000000E-002    1.883632087013716E-026
 -1.870000000000000E-002    2.276217254447704E-026
 -1.860000000000000E-002    2.516973610373749E-026
 -1.850000000000000E-002    2.513451889015532E-026
 -1.840000000000000E-002    2.171203743404913E-026
 -1.830000000000000E-002    1.406151584207270E-026
 -1.820000000000000E-002    1.601441368771840E-027
 -1.810000000000000E-002   -1.581320871396061E-026
 -1.800000000000000E-002   -3.770910260110927E-026
 -1.790000000000000E-002   -6.283194737356246E-026
 -1.780000000000000E-002   -8.903295726730541E-026
 -1.770000000000000E-002   -1.132379127098157E-025
 -1.760000000000000E-002   -1.315327646504244E-025
 -1.750000000000000E-002   -1.393951280182013E-025
 -1.740000000000000E-002   -1.320910509923892E-025
 -1.730000000000000E-002   -1.052400275537207E-025
 -1.720000000000000E-002   -5.552838064948983E-026
 -1.710000000000000E-002    1.847583417938748E-026
 -1.700000000000000E-002    1.154842774610504E-025
 -1.690000000000000E-002    2.307329199342599E-025
 -1.680000000000000E-002    3.554423555279649E-025
 -1.670000000000000E-002    4.766400377845068E-025
 -1.660000000000000E-002    5.774907160106383E-025
 -1.650000000000000E-002    6.382586461037201E-025
 -1.640000000000000E-002    6.379794625762953E-025
 -1.630000000000000E-002    5.568484528242942E-025
 -1.620000000000000E-002    3.792331520661906E-025
 -1.610000000000000E-002    9.710434308504617E-026
 -1.600000000000000E-002   -2.864448771423892E-025
 -1.590000000000000E-002   -7.540424219480797E-025
 -1.580000000000000E-002   -1.271787011950440E-024
 -1.570000000000000E-002   -1.788499722898211E-024
 -1.560000000000000E-002   -2.237056187287705E-024
 -1.550000000000000E-002   -2.538276163983931E-024
 -1.540000000000000E-002   -2.607652744245823E-024
 -1.530000000000000E-002   -2.364901121229143E-024
 -1.520000000000000E-002   -1.745923547441762E-024
 -1.510000000000000E-002   -7.163203591509055E-025
 -1.500000000000000E-002    7.148835141552215E-025
 -1.490000000000000E-002    2.483087713459355E-024
 -1.480000000000000E-002    4.459647460857044E-024
 -1.470000000000000E-002    6.449368939053109E-024
 -1.460000000000000E-002    8.196102784435078E-024
 -1.450000000000000E-002    9.398171483273820E-024
 -1.440000000000000E-002    9.734521804666472E-024
 -1.430000000000000E-002    8.901367669815247E-024
 -1.420000000000000E-002    6.657554395629357E-024
 -1.410000000000000E-002    2.875241865791292E-024
 -1.400000000000000E-002   -2.409282041732397E-024
 -1.390000000000000E-002   -8.951359507185156E-024
 -1.380000000000000E-002   -1.626812562704965E-023
 -1.370000000000000E-002   -2.363125672238009E-023
 -1.360000000000000E-002   -3.008994927851007E-023
 -1.350000000000000E-002   -3.452991831121043E-023
 -1.340000000000000E-002   -3.577116998811765E-023
 -1.330000000000000E-002   -3.270296608672246E-023
 -1.320000000000000E-002   -2.444901404855029E-023
 -1.310000000000000E-002   -1.054997178451615E-023
 -1.300000000000000E-002    8.855628856512773E-024
 -1.290000000000000E-002    3.287610912117727E-023
 -1.280000000000000E-002    5.976451505613624E-023
 -1.270000000000000E-002    8.689804353164572E-023
 -1.260000000000000E-002    1.108646346380888E-022
 -1.250000000000000E-002    1.276757705792674E-022
 -1.240000000000000E-002    1.331131760549303E-022
 -1.230000000000000E-002    1.232023855658314E-022
 -1.220000000000000E-002    9.478720881349507E-023
 -1.210000000000000E-002    4.615963119324826E-023
 -1.200000000000000E-002   -2.232035684142885E-023
 -1.190000000000000E-002   -1.076964281070517E-022
 -1.180000000000000E-002   -2.040715980483518E-022
 -1.170000000000000E-002   -3.025408282365763E-022
 -1.160000000000000E-002   -3.914838012013627E-022
 -1.150000000000000E-002   -4.572773847642138E-022
 -1.140000000000000E-002   -4.854492288408908E-022
 -1.130000000000000E-002   -4.622447098152014E-022
 -1.120000000000000E-002   -3.765194817690810E-022
 -1.110000000000000E-002   -2.218055520419081E-022
 -1.100000000000000E-002    1.660677792179651E-024
 -1.090000000000000E-002    2.852118117118762E-022
 -1.080000000000000E-002    6.106155504441378E-022
 -1.070000000000000E-002    9.498261106149859E-022
 -1.060000000000000E-002    1.265876520199357E-021
 -1.050000000000000E-002    1.515088820463990E-021
 -1.040000000000000E-002    1.650663351186832E-021
 -1.030000000000000E-002    1.627548030635011E-021
 -1.020000000000000E-002    1.408307768931840E-021
 -1.010000000000000E-002    9.695226837144176E-022
 -1.000000000000000E-002    3.080619652635865E-022
 -9.899999999999999E-003   -5.535643369117666E-022
 -9.800000000000000E-003   -1.563649810432624E-021
 -9.699999999999999E-003   -2.640400793522453E-021
 -9.599999999999999E-003   -3.674454451172900E-021
 -9.500000000000000E-003   -4.535314175594850E-021
 -9.399999999999999E-003   -5.081851111817744E-021
 -9.299999999999999E-003   -5.176555819569347E-021
 -9.200000000000000E-003   -4.702696918401423E-021
 -9.099999999999999E-003   -3.582988292410647E-021
 -8.999999999999999E-003   -1.797868720755110E-021
 -8.900000000000000E-003    5.989127387593986E-022
 -8.799999999999999E-003    3.469890406770509E-021
 -8.699999999999999E-003    6.591090681480295E-021
 -8.600000000000000E-003    9.658934482768564E-021
 -8.499999999999999E-003    1.230815946931634E-020
 -8.399999999999999E-003    1.414113560596468E-020
 -8.300000000000000E-003    1.476756252526782E-020
 -8.199999999999999E-003    1.385210857818872E-020
 -8.100000000000000E-003    1.116605810112697E-020
 -8.000000000000000E-003    6.637624910096589E-021
 -7.899999999999999E-003    3.946410675801001E-022
 -7.800000000000000E-003   -7.207175080366674E-021
 -7.699999999999999E-003   -1.557690770300986E-020
 -7.599999999999999E-003   -2.390751178393963E-020
 -7.499999999999999E-003   -3.122469680647548E-020
 -7.399999999999999E-003   -3.646618513029102E-020
 -7.299999999999999E-003   -3.858845367429219E-020
 -7.199999999999999E-003   -3.669403962838188E-020
 -7.100000000000000E-003   -3.016860417022741E-020
 -6.999999999999999E-003   -1.881348082630922E-020
 -6.899999999999999E-003   -2.956912833621918E-021
 -6.800000000000000E-003    1.647384567775289E-020
 -6.699999999999999E-003    3.793632482492146E-020
 -6.599999999999999E-003    5.932640304696716E-020
 -6.499999999999999E-003    7.810971982074122E-020
 -6.399999999999999E-003    9.153177585079921E-020
 -6.299999999999999E-003    9.689808004316321E-020
 -6.199999999999999E-003    9.190567605601518E-020
 -6.100000000000000E-003    7.499731983299531E-020
 -5.999999999999999E-003    4.570105732550359E-020
 -5.899999999999999E-003    4.911828185841403E-021
 -5.800000000000000E-003   -4.493015487575902E-020
 -5.699999999999999E-003   -9.980667318919562E-020
 -5.599999999999999E-003   -1.542680890550990E-019
 -5.499999999999999E-003   -2.017789169147800E-019
 -5.399999999999999E-003   -2.352621455731317E-019
 -5.299999999999999E-003   -2.478189182811417E-019
 -5.199999999999999E-003   -2.335746913330859E-019
 -5.099999999999999E-003   -1.885784268189295E-019
 -4.999999999999999E-003   -1.116598509145344E-019
 -4.899999999999999E-003   -5.136768340829900E-021
 -4.799999999999999E-003    1.247404093198223E-019
 -4.699999999999999E-003    2.677113044344425E-019
 -4.599999999999999E-003    4.098776225759127E-019
 -4.499999999999999E-003    5.345705040502559E-019
 -4.399999999999999E-003    6.237114532385606E-019
 -4.299999999999999E-003    6.596062222220570E-019
 -4.199999999999999E-003    6.270515730070606E-019
 -4.099999999999999E-003    5.155725532369459E-019
 -3.999999999999999E-003    3.215605254804115E-019
 -3.899999999999999E-003    5.004721791637090E-020
 -3.799999999999999E-003   -2.841567246955439E-019
 -3.699999999999999E-003   -6.562108430770484E-019
 -3.599999999999999E-003   -1.032079841379932E-018
 -3.499999999999999E-003   -1.370564743803987E-018
 -3.399999999999999E-003   -1.626529109916354E-018
 -3.299999999999999E-003   -1.755178549419873E-018
 -3.199999999999999E-003   -1.717111240812892E-018
 -3.099999999999999E-003   -1.483715515421010E-018
 -2.999999999999999E-003   -1.042372029984992E-018
 -2.899999999999999E-003   -4.008476250380008E-019
 -2.799999999999999E-003    4.097597883966778E-019
 -2.699999999999999E-003    1.334113676784106E-018
 -2.599999999999999E-003    2.294236769143224E-018
 -2.499999999999999E-003    3.193887893648351E-018
 -2.399999999999999E-003    3.925723998020081E-018
 -2.299999999999999E-003    4.380955292061530E-018
 -2.199999999999999E-003    4.460864017657960E-018
 -2.099999999999999E-003    4.089245496002458E-018
 -1.999999999999999E-003    3.224568230222301E-018
 -1.899999999999999E-003    1.870472517115734E-018
 -1.799999999999999E-003    8.317392377762808E-020
 -1.699999999999999E-003   -2.025561529702478E-018
 -1.599999999999999E-003   -4.290941230615710E-018
 -1.499999999999999E-003   -6.503815384534864E-018
 -1.399999999999999E-003   -8.425572993833239E-018
 -1.299999999999999E-003   -9.808662570317206E-018
 -1.199999999999999E-003   -1.042145620530670E-017
 -1.099999999999999E-003   -1.007543953291440E-017
 -9.999999999999989E-004   -8.652181831283656E-018
 -8.999999999999990E-004   -6.127118031019570E-018
 -7.999999999999990E-004   -2.587057196362129E-018
 -6.999999999999989E-004    1.761465378161743E-018
 -5.999999999999990E-004    6.595344981472979E-018
 -4.999999999999989E-004    1.149104155054024E-017
 -3.999999999999989E-004    1.595398151603164E-017
 -2.999999999999989E-004    1.946007300896110E-017
 -1.999999999999989E-004    2.150678379408615E-017
 -9.999999999999892E-005    2.166967193973742E-017
  1.084202172485504E-018    1.965912663452236E-017
  1.000000000000011E-004    1.537121473887100E-017
  2.000000000000011E-004    8.926238920843015E-018
  3.000000000000011E-004    6.889842122364538E-019
  4.000000000000011E-004   -8.734281375187463E-018
  5.000000000000011E-004   -1.852522751233832E-017
  6.000000000000011E-004   -2.771002834149336E-017
  7.000000000000011E-004   -3.524105596955160E-017
  8.000000000000011E-004   -4.009847490917771E-017
  9.000000000000012E-004   -4.140378192281090E-017
  1.000000000000001E-003   -3.853465103082271E-017
  1.100000000000001E-003   -3.122887402885679E-017
  1.200000000000001E-003   -1.966444779338840E-017
  1.300000000000001E-003   -4.503656363433005E-018
  1.400000000000001E-003    1.310899452816551E-017
  1.500000000000001E-003    3.160151296844409E-017
  1.600000000000001E-003    4.908358999751944E-017
  1.700000000000001E-003    6.350642591434311E-017
  1.800000000000001E-003    7.286306681532377E-017
  1.900000000000001E-003    7.541362444584117E-017
  2.000000000000001E-003    6.991434286130645E-017
  2.100000000000001E-003    5.582624869902718E-017
  2.200000000000001E-003    3.347766072918382E-017
  2.300000000000001E-003    4.156119985539152E-018
  2.400000000000001E-003   -2.989072616840168E-017
  2.500000000000001E-003   -6.555870622239714E-017
  2.600000000000001E-003   -9.909939444323204E-017
  2.700000000000001E-003   -1.264340507752018E-016
  2.800000000000001E-003   -1.435502549644485E-016
  2.900000000000001E-003   -1.469505183953191E-016
  3.000000000000001E-003   -1.341120697750502E-016
  3.100000000000001E-003   -1.039097350456392E-016
  3.200000000000001E-003   -5.695111929519527E-017
  3.300000000000001E-003    4.225206896944049E-018
  3.400000000000001E-003    7.512976923637883E-017
  3.500000000000001E-003    1.495092907338332E-016
  3.600000000000001E-003    2.197507463777264E-016
  3.700000000000001E-003    2.774918987815469E-016
  3.800000000000001E-003    3.144032116704577E-016
  3.900000000000001E-003    3.230829829349655E-016
  4.000000000000001E-003    2.979878975171936E-016
  4.100000000000001E-003    2.363052399529252E-016
  4.200000000000001E-003    1.386665178704595E-016
  4.300000000000001E-003    9.604014224365910E-018
  4.400000000000001E-003   -1.423348544579173E-016
  4.500000000000001E-003   -3.048766429048562E-016
  4.600000000000002E-003   -4.627426074538497E-016
  4.700000000000001E-003   -5.987876971474951E-016
  4.800000000000001E-003   -6.954987003109926E-016
  4.900000000000002E-003   -7.367480457593310E-016
  5.000000000000001E-003   -7.096572237682429E-016
  5.100000000000001E-003   -6.063928681916177E-016
  5.200000000000001E-003   -4.257014122765947E-016
  5.300000000000002E-003   -1.739880581305586E-016
  5.400000000000001E-003    1.342341286116863E-016
  5.500000000000001E-003    4.766575226803606E-016
  5.600000000000002E-003    8.243286751356105E-016
  5.700000000000001E-003    1.143628549801891E-015
  5.800000000000001E-003    1.398996788768418E-015
  5.900000000000002E-003    1.556222412262649E-015
  6.000000000000001E-003    1.586044187950690E-015
  6.100000000000001E-003    1.467737592560836E-015
  6.200000000000002E-003    1.192323477224198E-015
  6.300000000000002E-003    7.650260080784700E-016
  6.400000000000001E-003    2.066334876435017E-016
  6.500000000000001E-003   -4.465163177437080E-016
  6.600000000000002E-003   -1.144103189462141E-015
  6.700000000000001E-003   -1.824983704264750E-015
  6.800000000000001E-003   -2.421829388758123E-015
  6.900000000000002E-003   -2.866965722094796E-015
  7.000000000000001E-003   -3.098976231447754E-015
  7.100000000000001E-003   -3.069508302072120E-015
  7.200000000000002E-003   -2.749621099858792E-015
  7.300000000000002E-003   -2.134988440270333E-015
  7.400000000000001E-003   -1.249291428907808E-015
  7.500000000000001E-003   -1.452447137217652E-016
  7.600000000000002E-003    1.097134368647835E-015
  7.700000000000001E-003    2.375172052255136E-015
  7.800000000000001E-003    3.570982420344420E-015
  7.900000000000001E-003    4.561295964687406E-015
  8.000000000000002E-003    5.228973226633301E-015
  8.100000000000001E-003    5.475242562843412E-015
  8.200000000000001E-003    5.231521797671584E-015
  8.300000000000002E-003    4.469586195024867E-015
  8.400000000000001E-003    3.208867469589665E-015
  8.500000000000002E-003    1.519817437733015E-015
  8.600000000000002E-003   -4.774561862970186E-016
  8.700000000000001E-003   -2.619692011498821E-015
  8.800000000000002E-003   -4.712044286348478E-015
  8.900000000000002E-003   -6.544130493454603E-015
  9.000000000000001E-003   -7.909443199590466E-015
  9.100000000000002E-003   -8.626541478521630E-015
  9.200000000000002E-003   -8.560065264285540E-015
  9.300000000000001E-003   -7.639423244326306E-015
  9.400000000000002E-003   -5.872971125992668E-015
  9.500000000000001E-003   -3.355733830416177E-015
  9.600000000000001E-003   -2.691319897451961E-016
  9.700000000000002E-003    3.128159017948658E-015
  9.800000000000001E-003    6.518296338983757E-015
  9.900000000000001E-003    9.550468157890219E-015
  1.000000000000000E-002    1.187342985909408E-014
  1.010000000000000E-002    1.317176254303263E-014
  1.020000000000000E-002    1.320252526710735E-014
  1.030000000000000E-002    1.182858987000174E-014
  1.040000000000000E-002    9.044805361019779E-015
  1.050000000000000E-002    4.993468740042156E-015
  1.060000000000000E-002   -3.373309186565298E-017
  1.070000000000000E-002   -5.609088998701456E-015
  1.080000000000000E-002   -1.119792672182419E-014
  1.090000000000000E-002   -1.620218704147939E-014
  1.100000000000000E-002   -2.001569713136959E-014
  1.110000000000000E-002   -2.208675457936527E-014
  1.120000000000000E-002   -2.198241341903522E-014
  1.130000000000000E-002   -1.944798053286869E-014
  1.140000000000000E-002   -1.445499699793460E-014
  1.150000000000000E-002   -7.231371503975132E-015
  1.160000000000000E-002    1.731569015269346E-015
  1.170000000000000E-002    1.169856663082929E-014
  1.180000000000000E-002    2.173757422076556E-014
  1.190000000000000E-002    3.079295794071359E-014
  1.200000000000000E-002    3.778024598251423E-014
  1.210000000000000E-002    4.169521565947078E-014
  1.220000000000000E-002    4.172776281982800E-014
  1.230000000000000E-002    3.736932215372643E-014
  1.240000000000000E-002    2.850211378695275E-014
  1.250000000000000E-002    1.545881929551385E-014
  1.260000000000000E-002   -9.568818535978285E-016
  1.270000000000000E-002   -1.949559025499157E-014
  1.280000000000000E-002   -3.853609006907662E-014
  1.290000000000000E-002   -5.620592336437208E-014
  1.300000000000000E-002   -7.054180551864670E-014
  1.310000000000000E-002   -7.967806449477028E-014
  1.320000000000000E-002   -8.204713490970579E-014
  1.330000000000000E-002   -7.657314211333090E-014
  1.340000000000000E-002   -6.283807017095683E-014
  1.350000000000000E-002   -4.120049214335936E-014
  1.360000000000000E-002   -1.284950849843055E-014
  1.370000000000000E-002    2.021887180831854E-014
  1.380000000000000E-002    5.530924116833091E-014
  1.390000000000000E-002    8.921664693034172E-014
  1.400000000000000E-002    1.184887521863404E-013
  1.410000000000000E-002    1.397418314663843E-013
  1.420000000000000E-002    1.500046118282641E-013
  1.430000000000000E-002    1.470583917408818E-013
  1.440000000000000E-002    1.297389067430510E-013
  1.450000000000000E-002    9.816531928151684E-014
  1.460000000000000E-002    5.386562671930308E-014
  1.470000000000000E-002   -2.250567566463404E-016
  1.480000000000000E-002   -5.990668259262697E-014
  1.490000000000000E-002   -1.199972458236748E-013
  1.500000000000000E-002   -1.747428773239678E-013
  1.510000000000000E-002   -2.183271201040758E-013
  1.520000000000000E-002   -2.454383818290117E-013
  1.530000000000000E-002   -2.518449106309235E-013
  1.540000000000000E-002   -2.349200432879588E-013
  1.550000000000000E-002   -1.940604143155916E-013
  1.560000000000000E-002   -1.309443217736293E-013
  1.570000000000000E-002   -4.958846905936330E-014
  1.580000000000000E-002    4.382253325099050E-014
  1.590000000000000E-002    1.413392493290019E-013
  1.600000000000000E-002    2.338653255353097E-013
  1.610000000000000E-002    3.119493129496077E-013
  1.620000000000000E-002    3.666874125508581E-013
  1.630000000000000E-002    3.906577979485381E-013
  1.640000000000000E-002    3.787951707556033E-013
  1.650000000000000E-002    3.291122725592014E-013
  1.660000000000000E-002    2.431812650449213E-013
  1.670000000000000E-002    1.263039108607719E-013
  1.680000000000000E-002   -1.267590720670481E-014
  1.690000000000000E-002   -1.619318476093092E-013
  1.700000000000000E-002   -3.075654015468053E-013
  1.710000000000000E-002   -4.348077293367770E-013
  1.720000000000000E-002   -5.294189046595655E-013
  1.730000000000000E-002   -5.791613572418250E-013
  1.740000000000000E-002   -5.752066232594094E-013
  1.750000000000000E-002   -5.133261625846938E-013
  1.760000000000000E-002   -3.947271173450625E-013
  1.770000000000000E-002   -2.264162010113453E-013
  1.780000000000000E-002   -2.101168932512229E-014
  1.790000000000000E-002    2.040270818789999E-013
  1.800000000000000E-002    4.277275681384157E-013
  1.810000000000000E-002    6.274051607900400E-013
  1.820000000000000E-002    7.807982265765284E-013
  1.830000000000000E-002    8.683504567855767E-013
  1.840000000000000E-002    8.754233751350678E-013
  1.850000000000000E-002    7.942086797300865E-013
  1.860000000000000E-002    6.251203190605898E-013
  1.870000000000000E-002    3.774790531379005E-013