 -4.000000000000000E-002    0.000000000000000E+000
 -3.990000000000000E-002    0.000000000000000E+000
 -3.980000000000000E-002    0.000000000000000E+000
 -3.970000000000000E-002    0.000000000000000E+000
 -3.960000000000000E-002    0.000000000000000E+000
 -3.950000000000000E-002    0.000000000000000E+000
 -3.940000000000000E-002    0.000000000000000E+000
 -3.930000000000000E-002    0.000000000000000E+000
 -3.920000000000000E-002    0.000000000000000E+000
 -3.910000000000000E-002    0.000000000000000E+000
 -3.900000000000000E-002    0.000000000000000E+000
 -3.890000000000000E-002    0.000000000000000E+000
 -3.880000000000000E-002    0.000000000000000E+000
 -3.870000000000000E-002    0.000000000000000E+000
 -3.860000000000000E-002    0.000000000000000E+000
 -3.850000000000000E-002    0.000000000000000E+000
 -3.840000000000000E-002    0.000000000000000E+000
 -3.830000000000000E-002    0.000000000000000E+000
 -3.820000000000000E-002    0.000000000000000E+000
 -3.810000000000000E-002    0.000000000000000E+000
 -3.800000000000000E-002    0.000000000000000E+000
 -3.790000000000000E-002    0.000000000000000E+000
 -3.780000000000000E-002    0.000000000000000E+000
 -3.770000000000000E-002    0.000000000000000E+000
 -3.760000000000000E-002    0.000000000000000E+000
 -3.750000000000000E-002    0.000000000000000E+000
 -3.740000000000000E-002    0.000000000000000E+000
 -3.730000000000000E-002    0.000000000000000E+000
 -3.720000000000000E-002    0.000000000000000E+000
 -3.710000000000000E-002    0.000000000000000E+000
 -3.700000000000000E-002    0.000000000000000E+000
 -3.690000000000000E-002    0.000000000000000E+000
 -3.680000000000000E-002    0.000000000000000E+000
 -3.670000000000000E-002    0.000000000000000E+000
 -3.660000000000000E-002    0.000000000000000E+000
 -3.650000000000000E-002    0.000000000000000E+000
 -3.640000000000000E-002    0.000000000000000E+000
 -3.630000000000000E-002    0.000000000000000E+000
 -3.620000000000000E-002    0.000000000000000E+000
 -3.610000000000000E-002    0.000000000000000E+000
 -3.600000000000000E-002    0.000000000000000E+000
 -3.590000000000000E-002    0.000000000000000E+000
 -3.580000000000000E-002    0.000000000000000E+000
 -3.570000000000000E-002    0.000000000000000E+000
 -3.560000000000000E-002    0.000000000000000E+000
 -3.550000000000000E-002    0.000000000000000E+000
 -3.540000000000000E-002    0.000000000000000E+000
 -3.530000000000000E-002    0.000000000000000E+000
 -3.520000000000000E-002    0.000000000000000E+000
 -3.510000000000000E-002    0.000000000000000E+000
 -3.500000000000000E-002    0.000000000000000E+000
 -3.490000000000000E-002    0.000000000000000E+000
 -3.480000000000000E-002    0.000000000000000E+000
 -3.470000000000000E-002    0.000000000000000E+000
 -3.460000000000000E-002    0.000000000000000E+000
 -3.450000000000000E-002    0.000000000000000E+000
 -3.440000000000000E-002    0.000000000000000E+000
 -3.430000000000000E-002    0.000000000000000E+000
 -3.420000000000000E-002    0.000000000000000E+000
 -3.410000000000000E-002    0.000000000000000E+000
 -3.400000000000000E-002    0.000000000000000E+000
 -3.390000000000000E-002    0.000000000000000E+000
 -3.380000000000000E-002    0.000000000000000E+000
 -3.370000000000000E-002    0.000000000000000E+000
 -3.360000000000000E-002    0.000000000000000E+000
 -3.350000000000000E-002    0.000000000000000E+000
 -3.340000000000000E-002    0.000000000000000E+000
 -3.330000000000000E-002    0.000000000000000E+000
 -3.320000000000000E-002    0.000000000000000E+000
 -3.310000000000000E-002    0.000000000000000E+000
 -3.300000000000000E-002    0.000000000000000E+000
 -3.290000000000000E-002    0.000000000000000E+000
 -3.280000000000000E-002    0.000000000000000E+000
 -3.270000000000000E-002    0.000000000000000E+000
 -3.260000000000000E-002    0.000000000000000E+000
 -3.250000000000000E-002    0.000000000000000E+000
 -3.240000000000000E-002    0.000000000000000E+000
 -3.230000000000000E-002    0.000000000000000E+000
 -3.220000000000000E-002    0.000000000000000E+000
 -3.210000000000000E-002    0.000000000000000E+000
 -3.200000000000000E-002    0.000000000000000E+000
 -3.190000000000000E-002    0.000000000000000E+000
 -3.180000000000000E-002    0.000000000000000E+000
 -3.170000000000000E-002    0.000000000000000E+000
 -3.160000000000000E-002    0.000000000000000E+000
 -3.150000000000000E-002    0.000000000000000E+000
 -3.140000000000000E-002    0.000000000000000E+000
 -3.130000000000000E-002    0.000000000000000E+000
 -3.120000000000000E-002    0.000000000000000E+000
 -3.110000000000000E-002    0.000000000000000E+000
 -3.100000000000000E-002    0.000000000000000E+000
 -3.090000000000000E-002    0.000000000000000E+000
 -3.080000000000000E-002    0.000000000000000E+000
 -3.070000000000000E-002    0.000000000000000E+000
 -3.060000000000000E-002    0.000000000000000E+000
 -3.050000000000000E-002    0.000000000000000E+000
 -3.040000000000000E-002    0.000000000000000E+000
 -3.030000000000000E-002    0.000000000000000E+000
 -3.020000000000000E-002    0.000000000000000E+000
 -3.010000000000000E-002    0.000000000000000E+000
 -3.000000000000000E-002    0.000000000000000E+000
 -2.990000000000000E-002    0.000000000000000E+000
 -2.980000000000000E-002    0.000000000000000E+000
 -2.970000000000000E-002    0.000000000000000E+000
 -2.960000000000000E-002    0.000000000000000E+000
 -2.950000000000000E-002    0.000000000000000E+000
 -2.940000000000000E-002    0.000000000000000E+000
 -2.930000000000000E-002    0.000000000000000E+000
 -2.920000000000000E-002    0.000000000000000E+000
 -2.910000000000000E-002    0.000000000000000E+000
 -2.900000000000000E-002    0.000000000000000E+000
 -2.890000000000000E-002    0.000000000000000E+000
 -2.880000000000000E-002    0.000000000000000E+000
 -2.870000000000000E-002    0.000000000000000E+000
 -2.860000000000000E-002    0.000000000000000E+000
 -2.850000000000000E-002    0.000000000000000E+000
 -2.840000000000000E-002    0.000000000000000E+000
 -2.830000000000000E-002    0.000000000000000E+000
 -2.820000000000000E-002    0.000000000000000E+000
 -2.810000000000000E-002    0.000000000000000E+000
 -2.800000000000000E-002    0.000000000000000E+000
 -2.790000000000000E-002    0.000000000000000E+000
 -2.780000000000000E-002    0.000000000000000E+000
 -2.770000000000000E-002    0.000000000000000E+000
 -2.760000000000000E-002    0.000000000000000E+000
 -2.750000000000000E-002    0.000000000000000E+000
 -2.740000000000000E-002    0.000000000000000E+000
 -2.730000000000000E-002    0.000000000000000E+000
 -2.720000000000000E-002    0.000000000000000E+000
 -2.710000000000000E-002    0.000000000000000E+000
 -2.700000000000000E-002   -6.414635304221270E-048
 -2.690000000000000E-002   -1.496748237651630E-047
 -2.680000000000000E-002   -7.191065295872467E-047
 -2.670000000000000E-002   -1.352684588451543E-046
 -2.660000000000000E-002   -1.986262647315840E-046
 -2.650000000000000E-002   -2.555694353137923E-046
 -2.640000000000000E-002   -3.039597588237057E-046
 -2.630000000000000E-002   -2.868540646791156E-046
 -2.620000000000000E-002   -1.914230822715797E-046
 -2.610000000000000E-002    9.855795398573216E-047
 -2.600000000000000E-002    5.894369418455946E-046
 -2.590000000000000E-002    1.520265951883871E-045
 -2.580000000000000E-002    2.782062926575029E-045
 -2.570000000000000E-002    4.438252409356945E-045
 -2.560000000000000E-002    6.205695646724924E-045
 -2.550000000000000E-002    8.049686865389945E-045
 -2.540000000000000E-002    9.168023454250170E-045
 -2.530000000000000E-002    1.019131121711662E-044
 -2.520000000000000E-002    9.110106840604781E-045
 -2.510000000000000E-002    5.538444053740674E-045
 -2.500000000000000E-002   -4.075154575458845E-045
 -2.490000000000000E-002   -1.963980949695373E-044
 -2.480000000000000E-002   -4.378536421613852E-044
 -2.470000000000000E-002   -7.676386078162972E-044
 -2.460000000000000E-002   -1.176604851299755E-043
 -2.450000000000000E-002   -1.640305114588076E-043
 -2.440000000000000E-002   -2.104699180123049E-043
 -2.430000000000000E-002   -2.452889718821416E-043
 -2.420000000000000E-002   -2.505880994767360E-043
 -2.410000000000000E-002   -2.041823421192820E-043
 -2.400000000000000E-002   -7.623207967092762E-044
 -2.390000000000000E-002    1.650268710975045E-043
 -2.380000000000000E-002    5.522720987530491E-043
 -2.370000000000000E-002    1.110583755243198E-042
 -2.360000000000000E-002    1.843324463038928E-042
 -2.350000000000000E-002    2.719858985219136E-042
 -2.340000000000000E-002    3.656835419824709E-042
 -2.330000000000000E-002    4.499257805598700E-042
 -2.320000000000000E-002    5.001521086981146E-042
 -2.310000000000000E-002    4.820162583705320E-042
 -2.300000000000000E-002    3.515773148950493E-042
 -2.290000000000000E-002    5.777099942367931E-043
 -2.280000000000000E-002   -4.514338158844611E-042
 -2.270000000000000E-002   -1.219155020088459E-041
 -2.260000000000000E-002   -2.265161976974991E-041
 -2.250000000000000E-002   -3.566313764391566E-041
 -2.240000000000000E-002   -5.032891573395742E-041
 -2.230000000000000E-002   -6.484047980743494E-041
 -2.220000000000000E-002   -7.624530436961691E-041
 -2.210000000000000E-002   -8.030500365883349E-041
 -2.200000000000000E-002   -7.151035416049967E-041
 -2.190000000000000E-002   -4.335915229042693E-041
 -2.180000000000000E-002    1.099684778234060E-041
 -2.170000000000000E-002    9.765199884324545E-041
 -2.160000000000000E-002    2.203091553813356E-040
 -2.150000000000000E-002    3.781221603879903E-040
 -2.140000000000000E-002    5.631087076181275E-040
 -2.130000000000000E-002    7.573791864355862E-040
 -2.120000000000000E-002    9.305995023656477E-040
 -2.110000000000000E-002    1.038309901457585E-039
 -2.100000000000000E-002    1.021899901126497E-039
 -2.090000000000000E-002    8.112092913554086E-040
 -2.080000000000000E-002    3.307547135756562E-040
 -2.070000000000000E-002   -4.895153388508655E-040
 -2.060000000000000E-002   -1.698384686379265E-039
 -2.050000000000000E-002   -3.302518026412916E-039
 -2.040000000000000E-002   -5.241658511468624E-039
 -2.030000000000000E-002   -7.362190908608700E-039
 -2.020000000000000E-002   -9.393002858913587E-039
 -2.010000000000000E-002   -1.092924304922367E-038
 -2.000000000000000E-002   -1.143115507565251E-038
 -1.990000000000000E-002   -1.024627747953004E-038
 -1.980000000000000E-002   -6.663461561433216E-039
 -1.970000000000000E-002   -5.923453885630850E-042
 -1.960000000000000E-002    1.023267838690918E-038
 -1.950000000000000E-002    2.421071990316719E-038
 -1.940000000000000E-002    4.152938358249425E-038
 -1.930000000000000E-002    6.101205144390205E-038
 -1.920000000000000E-002    8.050505536369825E-038
 -1.910000000000000E-002    9.674521667750246E-038
 -1.900000000000000E-002    1.053509212345681E-037
 -1.890000000000000E-002    1.010002449710002E-037
 -1.880000000000000E-002    7.785875111556637E-038
 -1.870000000000000E-002    3.030726167582319E-038
 -1.860000000000000E-002   -4.600709359349550E-038
 -1.850000000000000E-002   -1.528175376238756E-037
 -1.840000000000000E-002   -2.876649175271886E-037
 -1.830000000000000E-002   -4.422661457817645E-037
 -1.820000000000000E-002   -6.010712072433500E-037
 -1.810000000000000E-002   -7.403421034502810E-037
 -1.800000000000000E-002   -8.281569469319899E-037
 -1.790000000000000E-002   -8.257758868362268E-037
 -1.780000000000000E-002   -6.907810350652194E-037
 -1.770000000000000E-002   -3.822962854603855E-037
 -1.760000000000000E-002    1.316131160955884E-037
 -1.750000000000000E-002    8.645808422062045E-037
 -1.740000000000000E-002    1.801266114635642E-036
 -1.730000000000000E-002    2.886527457669603E-036
 -1.720000000000000E-002    4.016156618293752E-036
 -1.710000000000000E-002    5.031401623031754E-036
 -1.700000000000000E-002    5.719884288573656E-036
 -1.690000000000000E-002    5.825629589035020E-036
 -1.680000000000000E-002    5.070635412785187E-036
 -1.670000000000000E-002    3.189595164915319E-036
 -1.660000000000000E-002   -2.205711288212121E-038
 -1.650000000000000E-002   -4.648710594681569E-036
 -1.640000000000000E-002   -1.058837797952996E-035
 -1.630000000000000E-002   -1.748747910020195E-035
 -1.620000000000000E-002   -2.468752539767298E-035
 -1.610000000000000E-002   -3.119743191955360E-035
 -1.600000000000000E-002   -3.570689588663883E-035
 -1.590000000000000E-002   -3.665624692907296E-035
 -1.580000000000000E-002   -3.237568532819718E-035
 -1.570000000000000E-002   -2.130107194044794E-035
 -1.560000000000000E-002   -2.264271717541517E-036
 -1.550000000000000E-002    2.515677912490115E-035
 -1.540000000000000E-002    6.025872211755627E-035
 -1.530000000000000E-002    1.008520401245724E-034
 -1.520000000000000E-002    1.429835050871920E-034
 -1.510000000000000E-002    1.808199721840374E-034
 -1.500000000000000E-002    2.067781181098294E-034
 -1.490000000000000E-002    2.119804666791697E-034
 -1.480000000000000E-002    1.870994943541544E-034
 -1.470000000000000E-002    1.236154077184790E-034
 -1.460000000000000E-002    1.545888737356644E-035
 -1.450000000000000E-002   -1.390618625559032E-034
 -1.440000000000000E-002   -3.352349354222334E-034
 -1.430000000000000E-002   -5.600937760223164E-034
 -1.420000000000000E-002   -7.910976353427923E-034
 -1.410000000000000E-002   -9.957577814696682E-034
 -1.400000000000000E-002   -1.132639774943491E-033
 -1.390000000000000E-002   -1.154129752104522E-033
 -1.380000000000000E-002   -1.011230784250518E-033
 -1.370000000000000E-002   -6.604462338859011E-034
 -1.360000000000000E-002   -7.251166583064229E-035
 -1.350000000000000E-002    7.576427593439964E-034
 -1.340000000000000E-002    1.800737132397631E-033
 -1.330000000000000E-002    2.984262645434193E-033
 -1.320000000000000E-002    4.186709143671151E-033
 -1.310000000000000E-002    5.236952520382410E-033
 -1.300000000000000E-002    5.920852502012455E-033
 -1.290000000000000E-002    5.996786741642961E-033
 -1.280000000000000E-002    5.221153420178922E-033
 -1.270000000000000E-002    3.383755525294533E-033
 -1.260000000000000E-002    3.514651967563346E-034
 -1.250000000000000E-002   -3.883260457851278E-033
 -1.240000000000000E-002   -9.154437400895011E-033
 -1.230000000000000E-002   -1.508250243776627E-032
 -1.220000000000000E-002   -2.105097413105736E-032
 -1.210000000000000E-002   -2.620937462066281E-032
 -1.200000000000000E-002   -2.951153399955013E-032
 -1.190000000000000E-002   -2.979644716971517E-032
 -1.180000000000000E-002   -2.591517115447788E-032
 -1.170000000000000E-002   -1.690171428436220E-032
 -1.160000000000000E-002   -2.178708822908243E-033
 -1.150000000000000E-002    1.821975690095103E-032
 -1.140000000000000E-002    4.343439676248638E-032
 -1.130000000000000E-002    7.161033982458435E-032
 -1.120000000000000E-002    9.980996672836210E-032
 -1.110000000000000E-002    1.240506616626059E-031
 -1.100000000000000E-002    1.395055673813458E-031
 -1.090000000000000E-002    1.408950843115949E-031
 -1.080000000000000E-002    1.230786848206733E-031
 -1.070000000000000E-002    8.183139971212954E-032
 -1.060000000000000E-002    1.475716616682231E-032
 -1.050000000000000E-002   -7.774444045846164E-032
 -1.040000000000000E-002   -1.915774439231902E-031
 -1.030000000000000E-002   -3.182649441744832E-031
 -1.020000000000000E-002   -4.446503389055834E-031
 -1.010000000000000E-002   -5.531560223904153E-031
 -1.000000000000000E-002   -6.227488815420666E-031
 -9.899999999999999E-003   -6.307115324637079E-031
 -9.800000000000000E-003   -5.552370975201315E-031
 -9.699999999999999E-003   -3.787545697437177E-031
 -9.599999999999999E-003   -9.175957880232307E-032
 -9.500000000000000E-003    3.032200084862369E-031
 -9.399999999999999E-003    7.880317702834687E-031
 -9.299999999999999E-003    1.326301259863853E-030
 -9.200000000000000E-003    1.862508945306843E-030
 -9.099999999999999E-003    2.323408770883350E-030
 -8.999999999999999E-003    2.622337823304516E-030
 -8.900000000000000E-003    2.666744612773427E-030
 -8.799999999999999E-003    2.368914670921313E-030
 -8.699999999999999E-003    1.659429317601575E-030
 -8.600000000000000E-003    5.023668948653571E-031
 -8.499999999999999E-003   -1.089291820723146E-030
 -8.399999999999999E-003   -3.040097730658526E-030
 -8.300000000000000E-003   -5.202830487098027E-030
 -8.199999999999999E-003   -7.356039628257136E-030
 -8.100000000000000E-003   -9.210870025117075E-030
 -8.000000000000000E-003   -1.042908542446917E-029
 -7.899999999999999E-003   -1.065325330161202E-029
 -7.800000000000000E-003   -9.548700129943587E-030
 -7.699999999999999E-003   -6.855109905438619E-030
 -7.599999999999999E-003   -2.443719599639435E-030
 -7.499999999999999E-003    3.625935242357715E-030
 -7.399999999999999E-003    1.105748207614579E-029
 -7.299999999999999E-003    1.928634379112478E-029
 -7.199999999999999E-003    2.747481525855458E-029
 -7.100000000000000E-003    3.454205024940659E-029
 -6.999999999999999E-003    3.923515650414325E-029
 -6.899999999999999E-003    4.024395687259057E-029
 -6.800000000000000E-003    3.635675485338251E-029
 -6.699999999999999E-003    2.664829825285003E-029
 -6.599999999999999E-003    1.068420457154220E-029
 -6.499999999999999E-003   -1.128055323344297E-029
 -6.399999999999999E-003   -3.813713286661734E-029
 -6.299999999999999E-003   -6.782371402564610E-029
 -6.199999999999999E-003   -9.732349073670804E-029
 -6.100000000000000E-003   -1.227874734088770E-028
 -5.999999999999999E-003   -1.398009764487030E-028
 -5.899999999999999E-003   -1.437990974828237E-028
 -5.800000000000000E-003   -1.306179869179701E-028
 -5.699999999999999E-003   -9.714726036604839E-029
 -5.599999999999999E-003   -4.202602481563262E-029
 -5.499999999999999E-003    3.369686147727162E-029
 -5.399999999999999E-003    1.260346080510406E-028
 -5.299999999999999E-003    2.277715744410187E-028
 -5.199999999999999E-003    3.285125060496094E-028
 -5.099999999999999E-003    4.151582062282951E-028
 -4.999999999999999E-003    4.728606323870470E-028
 -4.899999999999999E-003    4.864630422779818E-028
 -4.799999999999999E-003    4.423677696779788E-028
 -4.699999999999999E-003    3.307033496117679E-028
 -4.599999999999999E-003    1.475896305677781E-028
 -4.499999999999999E-003   -1.027673305984293E-028
 -4.399999999999999E-003   -4.064673295864968E-028
 -4.299999999999999E-003   -7.391324305850617E-028
 -4.199999999999999E-003   -1.066266385656959E-027
 -4.099999999999999E-003   -1.345010751095672E-027
 -3.999999999999999E-003   -1.527437042999158E-027
 -3.899999999999999E-003   -1.565350757118173E-027
 -3.799999999999999E-003   -1.416380483637322E-027
 -3.699999999999999E-003   -1.050902467996610E-027
 -3.599999999999999E-003   -4.591228305482443E-028
 -3.499999999999999E-003    3.425507656557755E-028
 -3.399999999999999E-003    1.306851277907614E-027
 -3.299999999999999E-003    2.353746208365247E-027
 -3.199999999999999E-003    3.372228047560387E-027
 -3.099999999999999E-003    4.226520340863553E-027
 -2.999999999999999E-003    4.767021009205100E-027
 -2.899999999999999E-003    4.845790213370225E-027
 -2.799999999999999E-003    4.335746539588056E-027
 -2.699999999999999E-003    3.152063173955838E-027
 -2.599999999999999E-003    1.273583507076591E-027
 -2.499999999999999E-003   -1.238466058932342E-027
 -2.399999999999999E-003   -4.227517657810285E-027
 -2.299999999999999E-003   -7.437545766310647E-027
 -2.199999999999999E-003   -1.052051295347813E-026
 -2.099999999999999E-003   -1.305729853502355E-026
 -1.999999999999999E-003   -1.459279758149362E-026
 -1.899999999999999E-003   -1.468425009050908E-026
 -1.799999999999999E-003   -1.295994403259802E-026
 -1.699999999999999E-003   -9.183443537947201E-027
 -1.599999999999999E-003   -3.316593808212609E-027
 -1.499999999999999E-003    4.426895923505934E-027
 -1.399999999999999E-003    1.354634339228692E-026
 -1.299999999999999E-003    2.324630758365600E-026
 -1.199999999999999E-003    3.246370814693795E-026
 -1.099999999999999E-003    3.993490452158557E-026
 -9.999999999999989E-004    4.430391165285285E-026
 -8.999999999999990E-004    4.426817692629956E-026
 -7.999999999999990E-004    3.875272617827735E-026
 -6.999999999999989E-004    2.709779968347582E-026
 -5.999999999999990E-004    9.239982809826218E-027
 -4.999999999999989E-004   -1.413719440391161E-026
 -3.999999999999989E-004   -4.150886982067970E-026
 -2.999999999999989E-004   -7.049560679709523E-026
 -1.999999999999989E-004   -9.795182393555643E-026
 -9.999999999999892E-005   -1.201686887020186E-025
  1.084202172485504E-018   -1.331933145657764E-025
  1.000000000000011E-004   -1.332519925930668E-025
  2.000000000000011E-004   -1.172497509682070E-025
  3.000000000000011E-004   -8.330291337129672E-026
  4.000000000000011E-004   -3.124746223433688E-026
  5.000000000000011E-004    3.694405457683637E-026
  6.000000000000011E-004    1.169082518249517E-025
  7.000000000000011E-004    2.018667124068102E-025
  8.000000000000011E-004    2.828864105748696E-025
  9.000000000000012E-004    3.494572047215831E-025
  1.000000000000001E-003    3.903872985188259E-025
  1.100000000000001E-003    3.949797900906775E-025
  1.200000000000001E-003    3.544116944855809E-025
  1.300000000000001E-003    2.631946950083252E-025
  1.400000000000001E-003    1.205614665699164E-025
  1.500000000000001E-003   -6.840372236031410E-026
  1.600000000000001E-003   -2.920796193782964E-025
  1.700000000000001E-003   -5.322454546998591E-025
  1.800000000000001E-003   -7.647813416999262E-025
  1.900000000000001E-003   -9.612120331580189E-025
  2.000000000000001E-003   -1.091090526100406E-024
  2.100000000000001E-003   -1.125117423978319E-024
  2.200000000000001E-003   -1.038784364488638E-024
  2.300000000000001E-003   -8.162224730476816E-025
  2.400000000000001E-003   -4.538471460401988E-025
  2.500000000000001E-003    3.666863984864742E-026
  2.600000000000001E-003    6.265791648848446E-025
  2.700000000000001E-003    1.269856960609812E-024
  2.800000000000001E-003    1.904940674207756E-024
  2.900000000000001E-003    2.458632589588919E-024
  3.000000000000001E-003    2.852122661633528E-024
  3.100000000000001E-003    3.008869385446620E-024
  3.200000000000001E-003    2.863786924859222E-024
  3.300000000000001E-003    2.372937399564906E-024
  3.400000000000001E-003    1.522703033076720E-024
  3.500000000000001E-003    3.372770303111908E-025
  3.600000000000001E-003   -1.116719955415846E-024
  3.700000000000001E-003   -2.729591438652471E-024
  3.800000000000001E-003   -4.352711255357709E-024
  3.900000000000001E-003   -5.807924930676903E-024
  4.000000000000001E-003   -6.902109502751196E-024
  4.100000000000001E-003   -7.446203185410396E-024
  4.200000000000001E-003   -7.277352890258124E-024
  4.300000000000001E-003   -6.282225047386359E-024
  4.400000000000001E-003   -4.419010696341847E-024
  4.500000000000001E-003   -1.735360573048016E-024
  4.600000000000002E-003    1.620573260976087E-024
  4.700000000000001E-003    5.398528887059199E-024
  4.800000000000001E-003    9.255859367684628E-024
  4.900000000000002E-003    1.277957442689547E-023
  5.000000000000001E-003    1.552038419412981E-023
  5.100000000000001E-003    1.703703236655167E-023
  5.200000000000001E-003    1.694766610414273E-023
  5.300000000000002E-003    1.498362855756105E-023
  5.400000000000001E-003    1.103991260497687E-023
  5.500000000000001E-003    5.215892538379370E-024
  5.600000000000002E-003   -2.160086893516900E-024
  5.700000000000001E-003   -1.052796269653174E-023
  5.800000000000001E-003   -1.911922240801529E-023
  5.900000000000002E-003   -2.700811407524970E-023
  6.000000000000001E-003   -3.318982314953776E-023
  6.100000000000001E-003   -3.668140605955578E-023
  6.200000000000002E-003   -3.663777041615613E-023
  6.300000000000002E-003   -3.247204154338926E-023
  6.400000000000001E-003   -2.396721475956843E-023
  6.500000000000001E-003   -1.136467292445179E-023
  6.600000000000002E-003    4.584640312340759E-024
  6.700000000000001E-003    2.261880337882727E-023
  6.800000000000001E-003    4.102204921088265E-023
  6.900000000000002E-003    5.774405348993372E-023
  7.000000000000001E-003    7.057838985553112E-023
  7.100000000000001E-003    7.738983873337372E-023
  7.200000000000002E-003    7.637278632382883E-023
  7.300000000000002E-003    6.631631788502674E-023
  7.400000000000001E-003    4.684660695085207E-023
  7.500000000000001E-003    1.861472975279481E-023
  7.600000000000002E-003   -1.660113980004957E-023
  7.700000000000001E-003   -5.590576311021886E-023
  7.800000000000001E-003   -9.542730011214520E-023
  7.900000000000001E-003   -1.305944771401149E-022
  8.000000000000002E-003   -1.565423716069287E-022
  8.100000000000001E-003   -1.686222574225641E-022
  8.200000000000001E-003   -1.629750107006725E-022
  8.300000000000002E-003   -1.371133709000208E-022
  8.400000000000001E-003   -9.044790437721230E-023
  8.500000000000002E-003   -2.468673663260149E-023
  8.600000000000002E-003    5.595792742286143E-023
  8.700000000000001E-003    1.448136200512111E-022
  8.800000000000002E-003    2.330791471194309E-022
  8.900000000000002E-003    3.104560541281929E-022
  9.000000000000001E-003    3.660592077724268E-022
  9.100000000000002E-003    3.895510509809534E-022
  9.200000000000002E-003    3.724097062241821E-022
  9.300000000000001E-003    3.092103609426012E-022
  9.400000000000002E-003    1.987780703417336E-022
  9.500000000000001E-003    4.506083549979177E-023
  9.600000000000001E-003   -1.424225025442337E-022
  9.700000000000002E-003   -3.486807637472971E-022
  9.800000000000001E-003   -5.539765990163446E-022
  9.900000000000001E-003   -7.352039075596219E-022
  1.000000000000000E-002   -8.678727472762364E-022
  1.010000000000000E-002   -9.285823297310989E-022
  1.020000000000000E-002   -8.977895445176410E-022
  1.030000000000000E-002   -7.626166582570860E-022
  1.040000000000000E-002   -5.193951913987415E-022
  1.050000000000000E-002   -1.756235204412113E-022
  1.060000000000000E-002    2.489717836349543E-022
  1.070000000000000E-002    7.225333483159126E-022
  1.080000000000000E-002    1.202503003186322E-021
  1.090000000000000E-002    1.638448485081454E-021
  1.100000000000000E-002    1.976198101887603E-021
  1.110000000000000E-002    2.163049515518574E-021
  1.120000000000000E-002    2.153656775968609E-021
  1.130000000000000E-002    1.916069484154729E-021
  1.140000000000000E-002    1.437298083099531E-021
  1.150000000000000E-002    7.277350954945492E-022
  1.160000000000000E-002   -1.762188559944970E-022
  1.170000000000000E-002   -1.211884908772790E-021
  1.180000000000000E-002   -2.292780232730069E-021
  1.190000000000000E-002   -3.313993295753796E-021
  1.200000000000000E-002   -4.160333009376158E-021
  1.210000000000000E-002   -4.716801428225216E-021
  1.220000000000000E-002   -4.880642534129209E-021
  1.230000000000000E-002   -4.573916232387313E-021
  1.240000000000000E-002   -3.755366022018186E-021
  1.250000000000000E-002   -2.430215177846313E-021
  1.260000000000000E-002   -6.565646100331644E-022
  1.270000000000000E-002    1.452774564322630E-021
  1.280000000000000E-002    3.733870800447414E-021
  1.290000000000000E-002    5.981090854540814E-021
  1.300000000000000E-002    7.962198383918422E-021
  1.310000000000000E-002    9.438377288142280E-021
  1.320000000000000E-002    1.018778148557967E-020
  1.330000000000000E-002    1.003068058772616E-020
  1.340000000000000E-002    8.853798881732455E-021
  1.350000000000000E-002    6.631226948782553E-021
  1.360000000000000E-002    3.439252776211729E-021
  1.370000000000000E-002   -5.372472869616217E-022
  1.380000000000000E-002   -5.008673895296938E-021
  1.390000000000000E-002   -9.595828292692275E-021
  1.400000000000000E-002   -1.385627277026588E-020
  1.410000000000000E-002   -1.732070663880241E-020
  1.420000000000000E-002   -1.953697826248133E-020
  1.430000000000000E-002   -2.011821529071269E-020
  1.440000000000000E-002   -1.879069269921520E-020
  1.450000000000000E-002   -1.543646873450636E-020
  1.460000000000000E-002   -1.012576731535784E-020
  1.470000000000000E-002   -3.134431047009821E-021
  1.480000000000000E-002    5.057322702337622E-021
  1.490000000000000E-002    1.378704828284131E-020
  1.500000000000000E-002    2.225362600872956E-020
  1.510000000000000E-002    2.958047774835053E-020
  1.520000000000000E-002    3.489452035637766E-020
  1.530000000000000E-002    3.741478522829021E-020
  1.540000000000000E-002    3.654286113743001E-020
  1.550000000000000E-002    3.194623107798800E-020
  1.560000000000000E-002    2.362504960836786E-020
  1.570000000000000E-002    1.195350361775727E-020
  1.580000000000000E-002   -2.311616604811811E-021
  1.590000000000000E-002   -1.806010067029096E-020
  1.600000000000000E-002   -3.389690989629685E-020
  1.610000000000000E-002   -4.824818147671732E-020
  1.620000000000000E-002   -5.949826565422461E-020
  1.630000000000000E-002   -6.614778406624245E-020
  1.640000000000000E-002   -6.697925433209288E-020
  1.650000000000000E-002   -6.121422616250711E-020
  1.660000000000000E-002   -4.864496095931690E-020
  1.670000000000000E-002   -2.972426503435359E-020
  1.680000000000000E-002   -5.599268384926646E-021
  1.690000000000000E-002    2.192123005589293E-020
  1.700000000000000E-002    5.047027690076941E-020
  1.710000000000000E-002    7.729525249439609E-020
  1.720000000000000E-002    9.949010182895821E-020
  1.730000000000000E-002    1.142708322418915E-019
  1.740000000000000E-002    1.192715222390547E-019
  1.750000000000000E-002    1.128332910127300E-019
  1.760000000000000E-002    9.425588172390833E-020
  1.770000000000000E-002    6.398227332917157E-020
  1.780000000000000E-002    2.368907365016040E-020
  1.790000000000000E-002   -2.373676667140305E-020
  1.800000000000000E-002   -7.434677942547951E-020
  1.810000000000000E-002   -1.234047912212833E-019
  1.820000000000000E-002   -1.657726190116147E-019
  1.830000000000000E-002   -1.963818644479406E-019
  1.840000000000000E-002   -2.107541536376842E-019
  1.850000000000000E-002   -2.055229056802312E-019
  1.860000000000000E-002   -1.789038965132240E-019
  1.870000000000000E-002   -1.310613025913890E-019