 -4.000000000000000E-002    0.000000000000000E+000
 -3.990000000000000E-002    0.000000000000000E+000
 -3.980000000000000E-002    0.000000000000000E+000
 -3.970000000000000E-002    0.000000000000000E+000
 -3.960000000000000E-002    0.000000000000000E+000
 -3.950000000000000E-002    0.000000000000000E+000
 -3.940000000000000E-002    0.000000000000000E+000
 -3.930000000000000E-002    0.000000000000000E+000
 -3.920000000000000E-002    0.000000000000000E+000
 -3.910000000000000E-002    0.000000000000000E+000
 -3.900000000000000E-002    0.000000000000000E+000
 -3.890000000000000E-002    0.000000000000000E+000
 -3.880000000000000E-002    0.000000000000000E+000
 -3.870000000000000E-002    0.000000000000000E+000
 -3.860000000000000E-002    0.000000000000000E+000
 -3.850000000000000E-002    0.000000000000000E+000
 -3.840000000000000E-002    0.000000000000000E+000
 -3.830000000000000E-002    0.000000000000000E+000
 -3.820000000000000E-002    0.000000000000000E+000
 -3.810000000000000E-002    0.000000000000000E+000
 -3.800000000000000E-002    0.000000000000000E+000
 -3.790000000000000E-002    0.000000000000000E+000
 -3.780000000000000E-002    0.000000000000000E+000
 -3.770000000000000E-002    0.000000000000000E+000
 -3.760000000000000E-002    3.060234026749714E-048
 -3.750000000000000E-002    5.313390990618605E-047
 -3.740000000000000E-002    1.562742361160045E-046
 -3.730000000000000E-002    1.532386834134207E-045
 -3.720000000000000E-002    5.883265393575164E-045
 -3.710000000000000E-002    2.486979515099869E-044
 -3.700000000000000E-002    9.322606527561079E-044
 -3.690000000000000E-002    3.223115497000901E-043
 -3.680000000000000E-002    1.039599153176294E-042
 -3.670000000000000E-002    3.147041633237325E-042
 -3.660000000000000E-002    8.977135216432288E-042
 -3.650000000000000E-002    2.423189896123635E-041
 -3.640000000000000E-002    6.209802415265317E-041
 -3.630000000000000E-002    1.514760020577148E-040
 -3.620000000000000E-002    3.523913140726726E-040
 -3.610000000000000E-002    7.828292723346966E-040
 -3.600000000000000E-002    1.661573072793026E-039
 -3.590000000000000E-002    3.368878727587568E-039
 -3.580000000000000E-002    6.516643038641463E-039
 -3.570000000000000E-002    1.199410121984047E-038
 -3.560000000000000E-002    2.090117766368082E-038
 -3.550000000000000E-002    3.418124208448982E-038
 -3.540000000000000E-002    5.159522978651883E-038
 -3.530000000000000E-002    6.941992044828970E-038
 -3.520000000000000E-002    7.589915688605554E-038
 -3.510000000000000E-002    4.306537480419164E-038
 -3.500000000000000E-002   -8.679569805846923E-038
 -3.490000000000000E-002   -4.217706541442829E-037
 -3.480000000000000E-002   -1.148929132990676E-036
 -3.470000000000000E-002   -2.569317940464390E-036
 -3.460000000000000E-002   -5.132372040565313E-036
 -3.450000000000000E-002   -9.453077671832742E-036
 -3.440000000000000E-002   -1.627938193438139E-035
 -3.430000000000000E-002   -2.635422070214278E-035
 -3.420000000000000E-002   -4.008601321782418E-035
 -3.410000000000000E-002   -5.690625245098979E-035
 -3.400000000000000E-002   -7.416106102873541E-035
 -3.390000000000000E-002   -8.536983540406787E-035
 -3.380000000000000E-002   -7.771586546138947E-035
 -3.370000000000000E-002   -2.874883144580147E-035
 -3.360000000000000E-002    9.747057118428510E-035
 -3.350000000000000E-002    3.541009235813613E-034
 -3.340000000000000E-002    8.137339351437554E-034
 -3.330000000000000E-002    1.566685399913501E-033
 -3.320000000000000E-002    2.711636743675252E-033
 -3.310000000000000E-002    4.333413336611816E-033
 -3.300000000000000E-002    6.461264860936452E-033
 -3.290000000000000E-002    9.000148809569592E-033
 -3.280000000000000E-002    1.162803633249332E-032
 -3.270000000000000E-002    1.365524170500733E-032
 -3.260000000000000E-002    1.384860049628472E-032
 -3.250000000000000E-002    1.023573240575243E-032
 -3.240000000000000E-002   -7.599000153080409E-035
 -3.230000000000000E-002   -2.100367242147741E-032
 -3.220000000000000E-002   -5.741925440934970E-032
 -3.210000000000000E-002   -1.147683576112397E-031
 -3.200000000000000E-002   -1.982005039779465E-031
 -3.190000000000000E-002   -3.110048945266705E-031
 -3.180000000000000E-002   -4.521446812130406E-031
 -3.170000000000000E-002   -6.127304111736944E-031
 -3.160000000000000E-002   -7.713995435087991E-031
 -3.150000000000000E-002   -8.887965581493445E-031
 -3.140000000000000E-002   -9.017200527998526E-031
 -3.130000000000000E-002   -7.180108556906849E-031
 -3.120000000000000E-002   -2.139287513141881E-031
 -3.110000000000000E-002    7.634767504753877E-031
 -3.100000000000000E-002    2.385722039160372E-030
 -3.090000000000000E-002    4.820071971121481E-030
 -3.080000000000000E-002    8.190454620726349E-030
 -3.070000000000000E-002    1.251856916449683E-029
 -3.060000000000000E-002    1.764328798024109E-029
 -3.050000000000000E-002    2.311975507029271E-029
 -3.040000000000000E-002    2.810478527447549E-029
 -3.030000000000000E-002    3.124257362684816E-029
 -3.020000000000000E-002    3.057402828817733E-029
 -3.010000000000000E-002    2.350414779500942E-029
 -3.000000000000000E-002    6.872917512810465E-030
 -2.990000000000000E-002   -2.281613773176930E-029
 -2.980000000000000E-002   -6.895063077527156E-029
 -2.970000000000000E-002   -1.340944278809317E-028
 -2.960000000000000E-002   -2.189684495990083E-028
 -2.950000000000000E-002   -3.211303345558002E-028
 -2.940000000000000E-002   -4.334160505561307E-028
 -2.930000000000000E-002   -5.422901487151176E-028
 -2.920000000000000E-002   -6.263598321146895E-028
 -2.910000000000000E-002   -6.554268183102734E-028
 -2.900000000000000E-002   -5.905741635822229E-028
 -2.890000000000000E-002   -3.858834540851024E-028
 -2.880000000000000E-002    7.579794603371441E-030
 -2.870000000000000E-002    6.349320287095474E-028
 -2.860000000000000E-002    1.527389693003186E-027
 -2.850000000000000E-002    2.688929298209160E-027
 -2.840000000000000E-002    4.080245325890529E-027
 -2.830000000000000E-002    5.601388992687985E-027
 -2.820000000000000E-002    7.075431342931799E-027
 -2.810000000000000E-002    8.236616532568143E-027
 -2.800000000000000E-002    8.727519542272169E-027
 -2.790000000000000E-002    8.110474984175927E-027
 -2.780000000000000E-002    5.898887527132492E-027
 -2.770000000000000E-002    1.613338254001046E-027
 -2.760000000000000E-002   -5.134390410522442E-027
 -2.750000000000000E-002   -1.452951214062598E-026
 -2.740000000000000E-002   -2.641989217124246E-026
 -2.730000000000000E-002   -4.017081468154673E-026
 -2.720000000000000E-002   -5.452852290373899E-026
 -2.710000000000000E-002   -6.752025795359564E-026
 -2.700000000000000E-002   -7.642623994025761E-026
 -2.690000000000000E-002   -7.786365244929791E-026
 -2.680000000000000E-002   -6.802372309352885E-026
 -2.670000000000000E-002   -4.309544481441218E-026
 -2.660000000000000E-002    1.051743511752530E-028
 -2.650000000000000E-002    6.330794215107840E-026
 -2.640000000000000E-002    1.458088393182856E-025
 -2.630000000000000E-002    2.434305043282075E-025
 -2.620000000000000E-002    3.475687747506333E-025
 -2.610000000000000E-002    4.445264587460583E-025
 -2.600000000000000E-002    5.153791177968953E-025
 -2.590000000000000E-002    5.366439113773735E-025
 -2.580000000000000E-002    4.820103160171450E-025
 -2.570000000000000E-002    3.253387852907505E-025
 -2.560000000000000E-002    4.500755525922330E-026
 -2.550000000000000E-002   -3.704841851210406E-025
 -2.540000000000000E-002   -9.160119237942854E-025
 -2.530000000000000E-002   -1.563064267862631E-024
 -2.520000000000000E-002   -2.253712360369706E-024
 -2.510000000000000E-002   -2.896597214246549E-024
 -2.500000000000000E-002   -3.366472461283088E-024
 -2.490000000000000E-002   -3.508941742942506E-024
 -2.480000000000000E-002   -3.151879975761963E-024
 -2.470000000000000E-002   -2.124666180081655E-024
 -2.460000000000000E-002   -2.855204668372713E-025
 -2.450000000000000E-002    2.443811263308306E-024
 -2.440000000000000E-002    6.038322938622609E-024
 -2.430000000000000E-002    1.032894087992952E-023
 -2.420000000000000E-002    1.496645766202596E-023
 -2.410000000000000E-002    1.939765650743161E-023
 -2.400000000000000E-002    2.286220000494806E-023
 -2.390000000000000E-002    2.441930541697050E-023
 -2.380000000000000E-002    2.301210700722023E-023
 -2.370000000000000E-002    1.757536548525165E-023
 -2.360000000000000E-002    7.187713012242088E-024
 -2.350000000000000E-002   -8.736210853399022E-024
 -2.340000000000000E-002   -3.022635223564827E-023
 -2.330000000000000E-002   -5.653176812899116E-023
 -2.320000000000000E-002   -8.591913514976841E-023
 -2.310000000000000E-002   -1.155333891044404E-022
 -2.300000000000000E-002   -1.413634525633399E-022
 -2.290000000000000E-002   -1.583575247633045E-022
 -2.280000000000000E-002   -1.607263041812829E-022
 -2.270000000000000E-002   -1.424611760904066E-022
 -2.260000000000000E-002   -9.807240024187210E-023
 -2.250000000000000E-002   -2.352462948771823E-023
 -2.240000000000000E-002    8.268916055213448E-023
 -2.230000000000000E-002    2.184340214473906E-022
 -2.220000000000000E-002    3.769174920110094E-022
 -2.210000000000000E-002    5.459440398343305E-022
 -2.200000000000000E-002    7.076327015778417E-022
 -2.190000000000000E-002    8.387926479685767E-022
 -2.180000000000000E-002    9.121284133864378E-022
 -2.170000000000000E-002    8.983894366768591E-022
 -2.160000000000000E-002    7.694889616981460E-022
 -2.150000000000000E-002    5.024976816241141E-022
 -2.140000000000000E-002    8.426802413742067E-023
 -2.130000000000000E-002   -4.837159743210555E-022
 -2.120000000000000E-002   -1.180826391230483E-021
 -2.110000000000000E-002   -1.963810287554537E-021
 -2.100000000000000E-002   -2.765114662431733E-021
 -2.090000000000000E-002   -3.493794935109609E-021
 -2.080000000000000E-002   -4.039671642681300E-021
 -2.070000000000000E-002   -4.281197433768972E-021
 -2.060000000000000E-002   -4.097129603172084E-021
 -2.050000000000000E-002   -3.381651477833240E-021
 -2.040000000000000E-002   -2.062027342556277E-021
 -2.030000000000000E-002   -1.172792190236354E-022
 -2.020000000000000E-002    2.404190403292829E-021
 -2.010000000000000E-002    5.370579353756374E-021
 -2.000000000000000E-002    8.559076495752844E-021
 -1.990000000000000E-002    1.165742834231729E-020
 -1.980000000000000E-002    1.427710679925007E-020
 -1.970000000000000E-002    1.597961413459751E-020
 -1.960000000000000E-002    1.631625823253274E-020
 -1.950000000000000E-002    1.488013389606912E-020
 -1.940000000000000E-002    1.136706845450758E-020
 -1.930000000000000E-002    5.640326314642996E-021
 -1.920000000000000E-002   -2.208014676182473E-021
 -1.910000000000000E-002   -1.180762984333310E-020
 -1.900000000000000E-002   -2.248180562040143E-020
 -1.890000000000000E-002   -3.324972631943493E-020
 -1.880000000000000E-002   -4.286698211902041E-020
 -1.870000000000000E-002   -4.990909288578640E-020
 -1.860000000000000E-002   -5.289895400702912E-020
 -1.850000000000000E-002   -5.047349728593478E-020
 -1.840000000000000E-002   -4.157908374476704E-020
 -1.830000000000000E-002   -2.567842516709267E-020
 -1.820000000000000E-002   -2.946337478220950E-021
 -1.810000000000000E-002    2.557277972131852E-020
 -1.800000000000000E-002    5.787516826261790E-020
 -1.790000000000000E-002    9.100354229089783E-020
 -1.780000000000000E-002    1.211718683462116E-019
 -1.770000000000000E-002    1.440231302400178E-019
 -1.760000000000000E-002    1.550211119747975E-019
 -1.750000000000000E-002    1.499607670364768E-019
 -1.740000000000000E-002    1.255633834270770E-019
 -1.730000000000000E-002    8.010380852062640E-020
 -1.720000000000000E-002    1.400012747198816E-020
 -1.710000000000000E-002   -6.971553666321334E-020
 -1.700000000000000E-002   -1.651321564194418E-019
 -1.690000000000000E-002   -2.634821228872948E-019
 -1.680000000000000E-002   -3.535177194748250E-019
 -1.670000000000000E-002   -4.222798154704578E-019
 -1.660000000000000E-002   -4.562574364225415E-019
 -1.650000000000000E-002   -4.428915137193000E-019
 -1.640000000000000E-002   -3.723188469350314E-019
 -1.630000000000000E-002   -2.392025745261640E-019
 -1.620000000000000E-002   -4.444734954191574E-020
 -1.610000000000000E-002    2.034342378880412E-019
 -1.600000000000000E-002    4.875497673025649E-019
 -1.590000000000000E-002    7.826785169197618E-019
 -1.580000000000000E-002    1.056329777432630E-018
 -1.570000000000000E-002    1.270909600810199E-018
 -1.560000000000000E-002    1.386989175704034E-018
 -1.550000000000000E-002    1.367536563502093E-018
 -1.540000000000000E-002    1.182820580337164E-018
 -1.530000000000000E-002    8.155636157048947E-019
 -1.520000000000000E-002    2.657840145369018E-019
 -1.510000000000000E-002   -4.453076172515226E-019
 -1.500000000000000E-002   -1.273020251540948E-018
 -1.490000000000000E-002   -2.149127561630041E-018
 -1.480000000000000E-002   -2.984528816857266E-018
 -1.470000000000000E-002   -3.674907936461113E-018
 -1.460000000000000E-002   -4.109366468167540E-018
 -1.450000000000000E-002   -4.181673997972719E-018
 -1.440000000000000E-002   -3.803376626463174E-018
 -1.430000000000000E-002   -2.917654666224967E-018
 -1.420000000000000E-002   -1.512484735369113E-018
 -1.410000000000000E-002    3.685385466983166E-019
 -1.400000000000000E-002    2.619451132898531E-018
 -1.390000000000000E-002    5.070826737935881E-018
 -1.380000000000000E-002    7.495636180867808E-018
 -1.370000000000000E-002    9.622765334057428E-018
 -1.360000000000000E-002    1.115823110217052E-017
 -1.350000000000000E-002    1.181320308980466E-017
 -1.340000000000000E-002    1.133702322614866E-017
 -1.330000000000000E-002    9.552503370213078E-018
 -1.320000000000000E-002    6.389960001468659E-018
 -1.310000000000000E-002    1.915944952133726E-018
 -1.300000000000000E-002   -3.647568850034211E-018
 -1.290000000000000E-002   -9.917509035051829E-018
 -1.280000000000000E-002   -1.636071895274219E-017
 -1.270000000000000E-002   -2.232360742658189E-017
 -1.260000000000000E-002   -2.708060871819648E-017
 -1.250000000000000E-002   -2.989960099420967E-017
 -1.240000000000000E-002   -3.012016869270541E-017
 -1.230000000000000E-002   -2.723841215434223E-017
 -1.220000000000000E-002   -2.099015919369030E-017
 -1.210000000000000E-002   -1.142313946507260E-017
 -1.200000000000000E-002    1.051855687096725E-018
 -1.190000000000000E-002    1.564015973850340E-017
 -1.180000000000000E-002    3.118043427938660E-017
 -1.170000000000000E-002    4.620481221915516E-017
 -1.160000000000000E-002    5.904288950713670E-017
 -1.150000000000000E-002    6.796584664387712E-017
 -1.140000000000000E-002    7.136196717263138E-017
 -1.130000000000000E-002    6.792992810394236E-017
 -1.120000000000000E-002    5.687167315403856E-017
 -1.110000000000000E-002    3.806398778741987E-017
 -1.100000000000000E-002    1.218637794309382E-017
 -1.090000000000000E-002   -1.921603048783376E-017
 -1.080000000000000E-002   -5.375232663681559E-017
 -1.070000000000000E-002   -8.830020000886610E-017
 -1.060000000000000E-002   -1.192182244486599E-016
 -1.050000000000000E-002   -1.426494397572197E-016
 -1.040000000000000E-002   -1.548984348655799E-016
 -1.030000000000000E-002   -1.528534626065797E-016
 -1.020000000000000E-002   -1.344153837527394E-016
 -1.010000000000000E-002   -9.888817507548161E-017
 -1.000000000000000E-002   -4.728281876385973E-017
 -9.899999999999999E-003    1.751246972490035E-017
 -9.800000000000000E-003    9.073540834144835E-017
 -9.699999999999999E-003    1.659542058738768E-016
 -9.599999999999999E-003    2.354838926478249E-016
 -9.500000000000000E-003    2.910036916358889E-016
 -9.399999999999999E-003    3.243423188474885E-016
 -9.299999999999999E-003    3.283728553993212E-016
 -9.200000000000000E-003    2.979400424882617E-016
 -9.099999999999999E-003    2.307260001637383E-016
 -8.999999999999999E-003    1.279521582929579E-016
 -8.900000000000000E-003   -5.182975194370766E-018
 -8.799999999999999E-003   -1.594183484730253E-016
 -8.699999999999999E-003   -3.217621056508729E-016
 -8.600000000000000E-003   -4.762696425720867E-016
 -8.499999999999999E-003   -6.052571797984176E-016
 -8.399999999999999E-003   -6.908891961695850E-016
 -8.300000000000000E-003   -7.170315480709590E-016
 -8.199999999999999E-003   -6.712155218719594E-016
 -8.100000000000000E-003   -5.465254943501705E-016
 -8.000000000000000E-003   -3.431985999772382E-016
 -7.899999999999999E-003   -6.972678742174129E-017
 -7.800000000000000E-003    2.567305871703325E-016
 -7.699999999999999E-003    6.107728804236464E-016
 -7.599999999999999E-003    9.601022921904125E-016
 -7.499999999999999E-003    1.267790627091131E-015
 -7.399999999999999E-003    1.495367549442877E-015
 -7.299999999999999E-003    1.606539856213627E-015
 -7.199999999999999E-003    1.571246553079385E-015
 -7.100000000000000E-003    1.369688951864502E-015
 -6.999999999999999E-003    9.959123613943501E-016
 -6.899999999999999E-003    4.605110469288484E-016
 -6.800000000000000E-003   -2.079514706160973E-016
 -6.699999999999999E-003   -9.631386592947883E-016
 -6.599999999999999E-003   -1.742968507512351E-015
 -6.499999999999999E-003   -2.473530418401660E-015
 -6.399999999999999E-003   -3.074765019556939E-015
 -6.299999999999999E-003   -3.467585765197199E-015
 -6.199999999999999E-003   -3.581924365479391E-015
 -6.100000000000000E-003   -3.365020487536279E-015
 -5.999999999999999E-003   -2.789152070616269E-015
 -5.899999999999999E-003   -1.857952153776550E-015
 -5.800000000000000E-003   -6.104765824207607E-016
 -5.699999999999999E-003    8.776876486036285E-016
 -5.599999999999999E-003    2.496809702423807E-015
 -5.499999999999999E-003    4.109113708169785E-015
 -5.399999999999999E-003    5.558504006807402E-015
 -5.299999999999999E-003    6.683423998277083E-015
 -5.199999999999999E-003    7.331988385375985E-015
 -5.099999999999999E-003    7.378181903129026E-015
 -4.999999999999999E-003    6.737652641873530E-015
 -4.899999999999999E-003    5.381464840761145E-015
 -4.799999999999999E-003    3.346180281154068E-015
 -4.699999999999999E-003    7.387740473256890E-016
 -4.599999999999999E-003   -2.264768198956904E-015
 -4.499999999999999E-003   -5.427872248833770E-015
 -4.399999999999999E-003   -8.468850750770428E-015
 -4.299999999999999E-003   -1.108282677765010E-014
 -4.199999999999999E-003   -1.296873224183882E-014
 -4.099999999999999E-003   -1.385932969713999E-014
 -3.999999999999999E-003   -1.355165592072721E-014
 -3.899999999999999E-003   -1.193489485610939E-014
 -3.799999999999999E-003   -9.012572497656384E-015
 -3.699999999999999E-003   -4.916138371321290E-015
 -3.599999999999999E-003    9.250243285458172E-017
 -3.499999999999999E-003    5.631141803246058E-015
 -3.399999999999999E-003    1.122067783485407E-014
 -3.299999999999999E-003    1.632107256371260E-014
 -3.199999999999999E-003    2.037782020141289E-014
 -3.099999999999999E-003    2.287555488251286E-014
 -2.999999999999999E-003    2.339428454652056E-014
 -2.899999999999999E-003    2.166291334184061E-014
 -2.799999999999999E-003    1.760433550740556E-014
 -2.699999999999999E-003    1.136646711976912E-014
 -2.599999999999999E-003    3.334397141902840E-015
 -2.499999999999999E-003   -5.879996659075900E-015
 -2.399999999999999E-003   -1.547263063940297E-014
 -2.299999999999999E-003   -2.450554010750115E-014
 -2.199999999999999E-003   -3.198599427778422E-014
 -2.099999999999999E-003   -3.696094738422762E-014
 -1.999999999999999E-003   -3.861916294729973E-014
 -1.899999999999999E-003   -3.639160153822782E-014
 -1.799999999999999E-003   -3.003965620710741E-014
 -1.699999999999999E-003   -1.972077643747372E-014
 -1.599999999999999E-003   -6.021965395637222E-015
 -1.499999999999999E-003    1.004624539891053E-014
 -1.399999999999999E-003    2.709973967315974E-014
 -1.299999999999999E-003    4.347505075024267E-014
 -1.199999999999999E-003    5.736395206399779E-014
 -1.099999999999999E-003    6.697982761059707E-014
 -9.999999999999989E-004    7.074294350105882E-014
 -8.999999999999990E-004    6.746822050099413E-014
 -7.999999999999990E-004    5.653695322194438E-014
 -6.999999999999989E-004    3.803302122888371E-014
 -5.999999999999990E-004    1.282538083630457E-014
 -4.999999999999989E-004   -1.741802720127711E-014
 -3.999999999999989E-004   -5.029505503525290E-014
 -2.999999999999989E-004   -8.281622014145525E-014
 -1.999999999999989E-004   -1.116288772334453E-013
 -9.999999999999892E-005   -1.333060362907225E-013
  1.084202172485504E-018   -1.446789321003857E-013
  1.000000000000011E-004   -1.431855607144582E-013
  2.000000000000011E-004   -1.272023981953130E-013
  3.000000000000011E-004   -9.632427023161674E-014
  4.000000000000011E-004   -5.155839528644332E-014
  5.000000000000011E-004    4.597167121141431E-015
  6.000000000000011E-004    6.821216398017299E-014
  7.000000000000011E-004    1.341305497015072E-013
  8.000000000000011E-004    1.963217373007348E-013
  9.000000000000012E-004    2.483597625104543E-013
  1.000000000000001E-003    2.839973194026659E-013
  1.100000000000001E-003    2.977905622262330E-013
  1.200000000000001E-003    2.857183519214236E-013
  1.300000000000001E-003    2.457355053859729E-013
  1.400000000000001E-003    1.781979909769290E-013
  1.500000000000001E-003    8.610460765260569E-014
  1.600000000000001E-003   -2.488938659382148E-014
  1.700000000000001E-003   -1.467129772971103E-013
  1.800000000000001E-003   -2.693791631645980E-013
  1.900000000000001E-003   -3.817233069080760E-013
  2.000000000000001E-003   -4.723342707948240E-013
  2.100000000000001E-003   -5.306087503078818E-013
  2.200000000000001E-003   -5.478392044516390E-013
  2.300000000000001E-003   -5.182338650541479E-013
  2.400000000000001E-003   -4.397623856681199E-013
  2.500000000000001E-003   -3.147276690217376E-013
  2.600000000000001E-003   -1.499798757162527E-013
  2.700000000000001E-003    4.328392673798446E-014
  2.800000000000001E-003    2.501568408722911E-013
  2.900000000000001E-003    4.530779777855425E-013
  3.000000000000001E-003    6.332450058547772E-013
  3.100000000000001E-003    7.722816370990229E-013
  3.200000000000001E-003    8.540223476075089E-013
  3.300000000000001E-003    8.662517818984002E-013
  3.400000000000001E-003    8.022246450558195E-013
  3.500000000000001E-003    6.617967849951804E-013
  3.600000000000001E-003    4.520199983429798E-013
  3.700000000000001E-003    1.870924776581784E-013
  3.800000000000001E-003   -1.123918841049801E-013
  3.900000000000001E-003   -4.208851776728776E-013
  4.000000000000001E-003   -7.099414155605212E-013
  4.100000000000001E-003   -9.507398860547311E-013
  4.200000000000001E-003   -1.116869466841684E-012
  4.300000000000001E-003   -1.187123385684108E-012
  4.400000000000001E-003   -1.148026206899115E-012
  4.500000000000001E-003   -9.958177851479891E-013
  4.600000000000002E-003   -7.376475837035544E-013
  4.700000000000001E-003   -3.917870593122913E-013
  4.800000000000001E-003    1.325176606719718E-014
  4.900000000000002E-003    4.407032939603816E-013
  5.000000000000001E-003    8.485428059173952E-013
  5.100000000000001E-003    1.193282099706599E-012
  5.200000000000001E-003    1.434256686122413E-012
  5.300000000000002E-003    1.538019865822318E-012
  5.400000000000001E-003    1.482409681753639E-012
  5.500000000000001E-003    1.259847613209890E-012
  5.600000000000002E-003    8.794621944485228E-013
  5.700000000000001E-003    3.677141981252661E-013
  5.800000000000001E-003   -2.326845406401113E-013
  5.900000000000002E-003   -8.656087747262205E-013
  6.000000000000001E-003   -1.465999649507751E-012
  6.100000000000001E-003   -1.965686305431695E-012
  6.200000000000002E-003   -2.300092200139181E-012
  6.300000000000002E-003   -2.415236351912974E-012
  6.400000000000001E-003   -2.274346513047474E-012
  6.500000000000001E-003   -1.863384742151817E-012
  6.600000000000002E-003   -1.194820564827286E-012
  6.700000000000001E-003   -3.091011594308185E-013
  6.800000000000001E-003    7.265497212876520E-013
  6.900000000000002E-003    1.822154295338844E-012
  7.000000000000001E-003    2.871680089836061E-012
  7.100000000000001E-003    3.762028227891843E-012
  7.200000000000002E-003    4.383621977652144E-012
  7.300000000000002E-003    4.641708276315269E-012
  7.400000000000001E-003    4.467311802821746E-012
  7.500000000000001E-003    3.826733039598705E-012
  7.600000000000002E-003    2.728505119763819E-012
  7.700000000000001E-003    1.226882438776203E-012
  7.800000000000001E-003   -5.788011520573430E-013
  7.900000000000001E-003   -2.549255519233013E-012
  8.000000000000002E-003   -4.514726501207257E-012
  8.100000000000001E-003   -6.288366956658865E-012
  8.200000000000001E-003   -7.682523279086138E-012
  8.300000000000002E-003   -8.526636455777057E-012
  8.400000000000001E-003   -8.685153938537876E-012
  8.500000000000002E-003   -8.073735267949296E-012
  8.600000000000002E-003   -6.672014987039228E-012
  8.700000000000001E-003   -4.531407782618810E-012
  8.800000000000002E-003   -1.776750610554502E-012
  8.900000000000002E-003    1.398901258581906E-012
  9.000000000000001E-003    4.746407457310146E-012
  9.100000000000002E-003    7.979038073124215E-012
  9.200000000000002E-003    1.079609121288611E-011
  9.300000000000001E-003    1.290979832226205E-011
  9.400000000000002E-003    1.407320944067906E-011
  9.500000000000001E-003    1.410648065117169E-011
  9.600000000000001E-003    1.291892245450645E-011
  9.700000000000002E-003    1.052436162512612E-011
  9.800000000000001E-003    7.047849068488283E-012
  9.900000000000001E-003    2.722371548867656E-012
  1.000000000000000E-002   -2.124863988143479E-012
  1.010000000000000E-002   -7.096043944590601E-012
  1.020000000000000E-002   -1.175477175481930E-011
  1.030000000000000E-002   -1.566405250151183E-011
  1.040000000000000E-002   -1.842703726686202E-011
  1.050000000000000E-002   -1.972683816974660E-011
  1.060000000000000E-002   -1.936153238744023E-011
  1.070000000000000E-002   -1.727066219277532E-011
  1.080000000000000E-002   -1.355007250143138E-011
  1.090000000000000E-002   -8.452865842146061E-012
  1.100000000000000E-002   -2.375399182315871E-012
  1.110000000000000E-002    4.171344362736592E-012
  1.120000000000000E-002    1.060325893080063E-011
  1.130000000000000E-002    1.631436261290394E-011
  1.140000000000000E-002    2.073346672493785E-011
  1.150000000000000E-002    2.338116137051803E-011
  1.160000000000000E-002    2.392158533222304E-011
  1.170000000000000E-002    2.220359078945618E-011
  1.180000000000000E-002    1.828658684551558E-011
  1.190000000000000E-002    1.244750375889937E-011
  1.200000000000000E-002    5.166925635669336E-012
  1.210000000000000E-002   -2.905635872110966E-012
  1.220000000000000E-002   -1.100532798107108E-011
  1.230000000000000E-002   -1.832040214738104E-011
  1.240000000000000E-002   -2.406976934866120E-011
  1.250000000000000E-002   -2.758265175157997E-011
  1.260000000000000E-002   -2.837258996233361E-011
  1.270000000000000E-002   -2.619812895260719E-011
  1.280000000000000E-002   -2.110322799563744E-011
  1.290000000000000E-002   -1.343202302989263E-011
  1.300000000000000E-002   -3.814697755379340E-012
  1.310000000000000E-002    6.876173239395036E-012
  1.320000000000000E-002    1.759652185772919E-011
  1.330000000000000E-002    2.722382617299502E-011
  1.340000000000000E-002    3.466462863788985E-011
  1.350000000000000E-002    3.896689766510569E-011
  1.360000000000000E-002    3.942646697797533E-011
  1.370000000000000E-002    3.567653335585525E-011
  1.380000000000000E-002    2.775021520323136E-011
  1.390000000000000E-002    1.610795567331049E-011
  1.400000000000000E-002    1.624587101976113E-012
  1.410000000000000E-002   -1.446565850208312E-011
  1.420000000000000E-002   -3.066375796536631E-011
  1.430000000000000E-002   -4.533382378112713E-011
  1.440000000000000E-002   -5.685411150996079E-011
  1.450000000000000E-002   -6.377806781630710E-011
  1.460000000000000E-002   -6.499038389509516E-011
  1.470000000000000E-002   -5.984248999611210E-011
  1.480000000000000E-002   -4.825281263845980E-011
  1.490000000000000E-002   -3.075950698831955E-011
  1.500000000000000E-002   -8.517249046468314E-012
  1.510000000000000E-002    1.676574005633871E-011
  1.520000000000000E-002    4.294841611140181E-011
  1.530000000000000E-002    6.762801968458811E-011
  1.540000000000000E-002    8.834838946862304E-011
  1.550000000000000E-002    1.028283869058665E-010
  1.560000000000000E-002    1.091897969896314E-010
  1.570000000000000E-002    1.061630195635035E-010
  1.580000000000000E-002    9.324951334978689E-011
  1.590000000000000E-002    7.082268957279325E-011
  1.600000000000000E-002    4.015375745809168E-011
  1.610000000000000E-002    3.355296209315567E-012
  1.620000000000000E-002   -3.675743669389180E-011
  1.630000000000000E-002   -7.687927353347505E-011
  1.640000000000000E-002   -1.134866230060290E-010
  1.650000000000000E-002   -1.431455583522402E-010
  1.660000000000000E-002   -1.628297096642874E-010
  1.670000000000000E-002   -1.702186456791190E-010
  1.680000000000000E-002   -1.639476373424212E-010
  1.690000000000000E-002   -1.437825690871637E-010
  1.700000000000000E-002   -1.106994400133117E-010
  1.710000000000000E-002   -6.685600051052572E-011
  1.720000000000000E-002   -1.545235527494584E-011
  1.730000000000000E-002    3.951192705598355E-011
  1.740000000000000E-002    9.356668452591884E-011
  1.750000000000000E-002    1.421590338018732E-010
  1.760000000000000E-002    1.810663836115291E-010
  1.770000000000000E-002    2.067966007184960E-010
  1.780000000000000E-002    2.169364272686014E-010
  1.790000000000000E-002    2.104123660594804E-010
  1.800000000000000E-002    1.876348232924525E-010
  1.810000000000000E-002    1.505058290232946E-010
  1.820000000000000E-002    1.022833667685932E-010
  1.830000000000000E-002    4.730831392550741E-011
  1.840000000000000E-002   -9.385884754616880E-012
  1.850000000000000E-002   -6.254842314408050E-011
  1.860000000000000E-002   -1.072287512273545E-010
  1.870000000000000E-002   -1.392876136214617E-010