 -4.000000000000000E-002    0.000000000000000E+000
 -3.990000000000000E-002    0.000000000000000E+000
 -3.980000000000000E-002    0.000000000000000E+000
 -3.970000000000000E-002    0.000000000000000E+000
 -3.960000000000000E-002    0.000000000000000E+000
 -3.950000000000000E-002    0.000000000000000E+000
 -3.940000000000000E-002    0.000000000000000E+000
 -3.930000000000000E-002    0.000000000000000E+000
 -3.920000000000000E-002    0.000000000000000E+000
 -3.910000000000000E-002    0.000000000000000E+000
 -3.900000000000000E-002    0.000000000000000E+000
 -3.890000000000000E-002    0.000000000000000E+000
 -3.880000000000000E-002    0.000000000000000E+000
 -3.870000000000000E-002    0.000000000000000E+000
 -3.860000000000000E-002    0.000000000000000E+000
 -3.850000000000000E-002    0.000000000000000E+000
 -3.840000000000000E-002    0.000000000000000E+000
 -3.830000000000000E-002    0.000000000000000E+000
 -3.820000000000000E-002    0.000000000000000E+000
 -3.810000000000000E-002    0.000000000000000E+000
 -3.800000000000000E-002    0.000000000000000E+000
 -3.790000000000000E-002    0.000000000000000E+000
 -3.780000000000000E-002    0.000000000000000E+000
 -3.770000000000000E-002    0.000000000000000E+000
 -3.760000000000000E-002    0.000000000000000E+000
 -3.750000000000000E-002    0.000000000000000E+000
 -3.740000000000000E-002    0.000000000000000E+000
 -3.730000000000000E-002    0.000000000000000E+000
 -3.720000000000000E-002    0.000000000000000E+000
 -3.710000000000000E-002    0.000000000000000E+000
 -3.700000000000000E-002    0.000000000000000E+000
 -3.690000000000000E-002    0.000000000000000E+000
 -3.680000000000000E-002    0.000000000000000E+000
 -3.670000000000000E-002    0.000000000000000E+000
 -3.660000000000000E-002    0.000000000000000E+000
 -3.650000000000000E-002    0.000000000000000E+000
 -3.640000000000000E-002    0.000000000000000E+000
 -3.630000000000000E-002    0.000000000000000E+000
 -3.620000000000000E-002    0.000000000000000E+000
 -3.610000000000000E-002    0.000000000000000E+000
 -3.600000000000000E-002    0.000000000000000E+000
 -3.590000000000000E-002    0.000000000000000E+000
 -3.580000000000000E-002    0.000000000000000E+000
 -3.570000000000000E-002    0.000000000000000E+000
 -3.560000000000000E-002    0.000000000000000E+000
 -3.550000000000000E-002    0.000000000000000E+000
 -3.540000000000000E-002    0.000000000000000E+000
 -3.530000000000000E-002    0.000000000000000E+000
 -3.520000000000000E-002    0.000000000000000E+000
 -3.510000000000000E-002    0.000000000000000E+000
 -3.500000000000000E-002    0.000000000000000E+000
 -3.490000000000000E-002    0.000000000000000E+000
 -3.480000000000000E-002    0.000000000000000E+000
 -3.470000000000000E-002    0.000000000000000E+000
 -3.460000000000000E-002    0.000000000000000E+000
 -3.450000000000000E-002    0.000000000000000E+000
 -3.440000000000000E-002    0.000000000000000E+000
 -3.430000000000000E-002    0.000000000000000E+000
 -3.420000000000000E-002    0.000000000000000E+000
 -3.410000000000000E-002    0.000000000000000E+000
 -3.400000000000000E-002    0.000000000000000E+000
 -3.390000000000000E-002    0.000000000000000E+000
 -3.380000000000000E-002    0.000000000000000E+000
 -3.370000000000000E-002    0.000000000000000E+000
 -3.360000000000000E-002    0.000000000000000E+000
 -3.350000000000000E-002    0.000000000000000E+000
 -3.340000000000000E-002    0.000000000000000E+000
 -3.330000000000000E-002    0.000000000000000E+000
 -3.320000000000000E-002    0.000000000000000E+000
 -3.310000000000000E-002    0.000000000000000E+000
 -3.300000000000000E-002    0.000000000000000E+000
 -3.290000000000000E-002    0.000000000000000E+000
 -3.280000000000000E-002    0.000000000000000E+000
 -3.270000000000000E-002    0.000000000000000E+000
 -3.260000000000000E-002    0.000000000000000E+000
 -3.250000000000000E-002    0.000000000000000E+000
 -3.240000000000000E-002    0.000000000000000E+000
 -3.230000000000000E-002    0.000000000000000E+000
 -3.220000000000000E-002    0.000000000000000E+000
 -3.210000000000000E-002    0.000000000000000E+000
 -3.200000000000000E-002    0.000000000000000E+000
 -3.190000000000000E-002    1.924390591266381E-047
 -3.180000000000000E-002    4.490244712954889E-047
 -3.170000000000000E-002    2.157319588761740E-046
 -3.160000000000000E-002    4.058053765354630E-046
 -3.150000000000000E-002    5.958787941947519E-046
 -3.140000000000000E-002    7.602936706371558E-046
 -3.130000000000000E-002    8.798060999500108E-046
 -3.120000000000000E-002    6.127570586400666E-046
 -3.110000000000000E-002   -5.340980826198884E-046
 -3.100000000000000E-002   -3.933042752468102E-045
 -3.090000000000000E-002   -9.388356198580039E-045
 -3.080000000000000E-002   -1.777363009825583E-044
 -3.070000000000000E-002   -2.972379217497205E-044
 -3.060000000000000E-002   -4.606773187155363E-044
 -3.050000000000000E-002   -6.428399046766967E-044
 -3.040000000000000E-002   -8.320529224714463E-044
 -3.030000000000000E-002   -9.510338601291440E-044
 -3.020000000000000E-002   -8.665953262264889E-044
 -3.010000000000000E-002   -3.539272008977438E-044
 -3.000000000000000E-002    9.007795915324723E-044
 -2.990000000000000E-002    3.355017156105819E-043
 -2.980000000000000E-002    7.554359490270609E-043
 -2.970000000000000E-002    1.406933770030223E-042
 -2.960000000000000E-002    2.333367242426094E-042
 -2.950000000000000E-002    3.536706252563769E-042
 -2.940000000000000E-002    4.927889323917492E-042
 -2.930000000000000E-002    6.262515351700621E-042
 -2.920000000000000E-002    7.051192657979810E-042
 -2.910000000000000E-002    6.462936441451349E-042
 -2.900000000000000E-002    3.226916414008053E-042
 -2.890000000000000E-002   -4.424107791898468E-042
 -2.880000000000000E-002   -1.871386953134503E-041
 -2.870000000000000E-002   -4.211977702426755E-041
 -2.860000000000000E-002   -7.688827087821448E-041
 -2.850000000000000E-002   -1.241611058255332E-040
 -2.840000000000000E-002   -1.825990255342181E-040
 -2.830000000000000E-002   -2.464262991582095E-040
 -2.820000000000000E-002   -3.029175457121008E-040
 -2.810000000000000E-002   -3.295266096474653E-040
 -2.800000000000000E-002   -2.911214862002586E-040
 -2.790000000000000E-002   -1.381596041834877E-040
 -2.780000000000000E-002    1.928855593036835E-040
 -2.770000000000000E-002    7.750306520139537E-040
 -2.760000000000000E-002    1.679970936775701E-039
 -2.750000000000000E-002    2.958436636077416E-039
 -2.740000000000000E-002    4.609448115355094E-039
 -2.730000000000000E-002    6.537150356066450E-039
 -2.720000000000000E-002    8.496018707950136E-039
 -2.710000000000000E-002    1.002871062876740E-038
 -2.700000000000000E-002    1.040603258716128E-038
 -2.690000000000000E-002    8.585338268944991E-039
 -2.680000000000000E-002    3.211723051524099E-039
 -2.670000000000000E-002   -7.305308132244344E-039
 -2.660000000000000E-002   -2.460040300120821E-038
 -2.650000000000000E-002   -5.000459901485933E-038
 -2.640000000000000E-002   -8.400555702120689E-038
 -2.630000000000000E-002   -1.254985668904121E-037
 -2.620000000000000E-002   -1.708467084435387E-037
 -2.610000000000000E-002   -2.128253402538462E-037
 -2.600000000000000E-002   -2.396056097884610E-037
 -2.590000000000000E-002   -2.340318739143229E-037
 -2.580000000000000E-002   -1.735599890827561E-037
 -2.570000000000000E-002   -3.133110827775708E-038
 -2.560000000000000E-002    2.210688750793043E-037
 -2.550000000000000E-002    6.086080486963200E-037
 -2.540000000000000E-002    1.145119276463207E-036
 -2.530000000000000E-002    1.822757521450613E-036
 -2.520000000000000E-002    2.598935273485662E-036
 -2.510000000000000E-002    3.381818266101534E-036
 -2.500000000000000E-002    4.016465688972312E-036
 -2.490000000000000E-002    4.274903506737313E-036
 -2.480000000000000E-002    3.854699097851909E-036
 -2.470000000000000E-002    2.391733367403082E-036
 -2.460000000000000E-002   -5.064668068538708E-037
 -2.450000000000000E-002   -5.200704624506288E-036
 -2.440000000000000E-002   -1.192888486237607E-035
 -2.430000000000000E-002   -2.068257023357277E-035
 -2.420000000000000E-002   -3.105611875004662E-035
 -2.410000000000000E-002   -4.208149693990826E-035
 -2.400000000000000E-002   -5.207247108113792E-035
 -2.390000000000000E-002   -5.851400570889083E-035
 -2.380000000000000E-002   -5.804481204107338E-035
 -2.370000000000000E-002   -4.659081154704220E-035
 -2.360000000000000E-002   -1.971141148913324E-035
 -2.350000000000000E-002    2.678497701417764E-035
 -2.340000000000000E-002    9.591890423553095E-035
 -2.330000000000000E-002    1.883113785919072E-034
 -2.320000000000000E-002    3.007064883517448E-034
 -2.310000000000000E-002    4.243813035914431E-034
 -2.300000000000000E-002    5.436748518291955E-034
 -2.290000000000000E-002    6.349717442330969E-034
 -2.280000000000000E-002    6.665737379642448E-034
 -2.270000000000000E-002    5.999608836492751E-034
 -2.260000000000000E-002    3.929566160541281E-034
 -2.250000000000000E-002    5.236435608242581E-036
 -2.240000000000000E-002   -5.935755051113247E-034
 -2.230000000000000E-002   -1.413316433682580E-033
 -2.220000000000000E-002   -2.430794693065850E-033
 -2.210000000000000E-002   -3.576634074279117E-033
 -2.200000000000000E-002   -4.723436365665036E-033
 -2.190000000000000E-002   -5.678012535473693E-033
 -2.180000000000000E-002   -6.181096210091440E-033
 -2.170000000000000E-002   -5.918329661620720E-033
 -2.160000000000000E-002   -4.546223529538605E-033
 -2.150000000000000E-002   -1.735975338697303E-033
 -2.140000000000000E-002    2.763650469838498E-033
 -2.130000000000000E-002    9.045917666799775E-033
 -2.120000000000000E-002    1.695348455211829E-032
 -2.110000000000000E-002    2.598348268855045E-032
 -2.100000000000000E-002    3.520536619027783E-032
 -2.090000000000000E-002    4.321151880024459E-032
 -2.080000000000000E-002    4.812439817059022E-032
 -2.070000000000000E-002    4.768544938278791E-032
 -2.060000000000000E-002    3.944891449959699E-032
 -2.050000000000000E-002    2.109651662276479E-032
 -2.040000000000000E-002   -9.123998710580183E-033
 -2.030000000000000E-002   -5.185293451396288E-032
 -2.020000000000000E-002   -1.060072645769502E-031
 -2.010000000000000E-002   -1.681754610099303E-031
 -2.000000000000000E-002   -2.321212444696817E-031
 -1.990000000000000E-002   -2.885264868792080E-031
 -1.980000000000000E-002   -3.251215000133879E-031
 -1.970000000000000E-002   -3.273519848559395E-031
 -1.960000000000000E-002   -2.797087996230544E-031
 -1.950000000000000E-002   -1.677928147493481E-031
 -1.940000000000000E-002    1.890257678337008E-032
 -1.930000000000000E-002    2.836327633539818E-031
 -1.920000000000000E-002    6.187636671586345E-031
 -1.910000000000000E-002    1.002321645182644E-030
 -1.900000000000000E-002    1.395366392069618E-030
 -1.890000000000000E-002    1.740956200366840E-030
 -1.880000000000000E-002    1.965539648829821E-030
 -1.870000000000000E-002    1.983563926733143E-030
 -1.860000000000000E-002    1.705901587102839E-030
 -1.850000000000000E-002    1.052332819339602E-030
 -1.840000000000000E-002   -3.222836602944573E-032
 -1.830000000000000E-002   -1.558803979766004E-030
 -1.820000000000000E-002   -3.474605877962085E-030
 -1.810000000000000E-002   -5.645254955936958E-030
 -1.800000000000000E-002   -7.842556223137562E-030
 -1.790000000000000E-002   -9.741978011195188E-030
 -1.780000000000000E-002   -1.093410426680374E-029
 -1.770000000000000E-002   -1.095382605506853E-029
 -1.760000000000000E-002   -9.329746853755544E-030
 -1.750000000000000E-002   -5.654072324972125E-030
 -1.740000000000000E-002    3.298232609075591E-031
 -1.730000000000000E-002    8.628806725053567E-030
 -1.720000000000000E-002    1.890132174394366E-029
 -1.710000000000000E-002    3.037381586544992E-029
 -1.700000000000000E-002    4.179090682949210E-029
 -1.690000000000000E-002    5.141985751148567E-029
 -1.680000000000000E-002    5.712936754477236E-029
 -1.670000000000000E-002    5.655883873035739E-029
 -1.660000000000000E-002    4.738655045416068E-029
 -1.650000000000000E-002    2.769314109761881E-029
 -1.640000000000000E-002   -3.598995520674207E-030
 -1.630000000000000E-002   -4.624854766727716E-029
 -1.620000000000000E-002   -9.823834880051014E-029
 -1.610000000000000E-002   -1.554148642451255E-028
 -1.600000000000000E-002   -2.113135872652996E-028
 -1.590000000000000E-002   -2.572645442711927E-028
 -1.580000000000000E-002   -2.828639092490396E-028
 -1.570000000000000E-002   -2.768742628845279E-028
 -1.560000000000000E-002   -2.285739299311403E-028
 -1.550000000000000E-002   -1.295164364127454E-028
 -1.540000000000000E-002    2.441367093610407E-029
 -1.530000000000000E-002    2.308469008091135E-028
 -1.520000000000000E-002    4.789594313767983E-028
 -1.510000000000000E-002    7.480423604660236E-028
 -1.500000000000000E-002    1.007008242519008E-027
 -1.490000000000000E-002    1.215234047338627E-027
 -1.480000000000000E-002    1.325081304438840E-027
 -1.470000000000000E-002    1.286306501899903E-027
 -1.460000000000000E-002    1.052370719897691E-027
 -1.450000000000000E-002    5.883844591458774E-028
 -1.440000000000000E-002   -1.199037078267073E-028
 -1.430000000000000E-002   -1.057018013777396E-027
 -1.420000000000000E-002   -2.169840101619278E-027
 -1.410000000000000E-002   -3.362398171200385E-027
 -1.400000000000000E-002   -4.495012533086450E-027
 -1.390000000000000E-002   -5.389368126010626E-027
 -1.380000000000000E-002   -5.840754371141858E-027
 -1.370000000000000E-002   -5.638093107578054E-027
 -1.360000000000000E-002   -4.591460527024261E-027
 -1.350000000000000E-002   -2.565652424110971E-027
 -1.340000000000000E-002    4.829938409068366E-028
 -1.330000000000000E-002    4.470667804083050E-027
 -1.320000000000000E-002    9.156393399137917E-027
 -1.310000000000000E-002    1.412475265502557E-026
 -1.300000000000000E-002    1.878740966699243E-026
 -1.290000000000000E-002    2.240920003139596E-026
 -1.280000000000000E-002    2.416289824527533E-026
 -1.270000000000000E-002    2.321405026825154E-026
 -1.260000000000000E-002    1.883348208303008E-026
 -1.250000000000000E-002    1.053046743777187E-026
 -1.240000000000000E-002   -1.805493132103499E-027
 -1.230000000000000E-002   -1.777125993926541E-026
 -1.220000000000000E-002   -3.634601931794469E-026
 -1.210000000000000E-002   -5.583997307435881E-026
 -1.200000000000000E-002   -7.391889848547764E-026
 -1.190000000000000E-002   -8.772423956175545E-026
 -1.180000000000000E-002   -9.410109372967401E-026
 -1.170000000000000E-002   -8.993538739949265E-026
 -1.160000000000000E-002   -7.258679871738728E-026
 -1.150000000000000E-002   -4.038693308576767E-026
 -1.140000000000000E-002    6.845750226811854E-027
 -1.130000000000000E-002    6.733930433256904E-026
 -1.120000000000000E-002    1.370275257575814E-025
 -1.110000000000000E-002    2.094180721459204E-025
 -1.100000000000000E-002    2.757482886746994E-025
 -1.090000000000000E-002    3.254911558198960E-025
 -1.080000000000000E-002    3.472444338911161E-025
 -1.070000000000000E-002    3.299937252365929E-025
 -1.060000000000000E-002    2.646868036033518E-025
 -1.050000000000000E-002    1.459968764672602E-025
 -1.040000000000000E-002   -2.590739866795596E-026
 -1.030000000000000E-002   -2.438201443393914E-025
 -1.020000000000000E-002   -4.924545675202233E-025
 -1.010000000000000E-002   -7.481760895943664E-025
 -1.000000000000000E-002   -9.797646873435928E-025
 -9.899999999999999E-003   -1.150391155604278E-024
 -9.800000000000000E-003   -1.220881385968942E-024
 -9.699999999999999E-003   -1.154191429630490E-024
 -9.599999999999999E-003   -9.208337312038372E-025
 -9.500000000000000E-003   -5.047990134834451E-025
 -9.399999999999999E-003    9.067252150963310E-026
 -9.299999999999999E-003    8.382695639408113E-025
 -9.200000000000000E-003    1.683628062389471E-024
 -9.099999999999999E-003    2.545073316102636E-024
 -8.999999999999999E-003    3.316848956766500E-024
 -8.900000000000000E-003    3.876337232777933E-024
 -8.799999999999999E-003    4.095386495747265E-024
 -8.699999999999999E-003    3.855351334451498E-024
 -8.600000000000000E-003    3.064864975037877E-024
 -8.499999999999999E-003    1.678745300766537E-024
 -8.399999999999999E-003   -2.841229803186790E-025
 -8.300000000000000E-003   -2.726513337962460E-024
 -8.199999999999999E-003   -5.464970886029253E-024
 -8.100000000000000E-003   -8.230976612578440E-024
 -8.000000000000000E-003   -1.068332808021483E-023
 -7.899999999999999E-003   -1.243300351412325E-023
 -7.800000000000000E-003   -1.308047366643470E-023
 -7.699999999999999E-003   -1.226381274832219E-023
 -7.599999999999999E-003   -9.714146422079801E-024
 -7.499999999999999E-003   -5.313160662493422E-024
 -7.399999999999999E-003    8.541771926027126E-025
 -7.299999999999999E-003    8.459633278161312E-024
 -7.199999999999999E-003    1.691272249138131E-023
 -7.100000000000000E-003    2.537033224715061E-023
 -6.999999999999999E-003    3.278075204801267E-023
 -6.899999999999999E-003    3.796494265906604E-023
 -6.800000000000000E-003    3.973376723629657E-023
 -6.699999999999999E-003    3.703502325973495E-023
 -6.599999999999999E-003    2.911881714189444E-023
 -6.499999999999999E-003    1.570473226247875E-023
 -6.399999999999999E-003   -2.869972796530998E-024
 -6.299999999999999E-003   -2.554443218904529E-023
 -6.199999999999999E-003   -5.049397341114450E-023
 -6.100000000000000E-003   -7.517635736221031E-023
 -5.999999999999999E-003   -9.647906396898224E-023
 -5.899999999999999E-003   -1.109729160184225E-022
 -5.800000000000000E-003   -1.152650664024648E-022
 -5.699999999999999E-003   -1.064302534775798E-022
 -5.599999999999999E-003   -8.248435711744678E-023
 -5.499999999999999E-003   -4.285070114690367E-023
 -5.399999999999999E-003    1.124108614724353E-023
 -5.299999999999999E-003    7.648912654049962E-023
 -5.199999999999999E-003    1.474502315909060E-022
 -5.099999999999999E-003    2.167213707615649E-022
 -4.999999999999999E-003    2.754063963159183E-022
 -4.899999999999999E-003    3.138747685603067E-022
 -4.799999999999999E-003    3.227841340431995E-022
 -4.699999999999999E-003    2.942991604456304E-022
 -4.599999999999999E-003    2.233994970084633E-022
 -4.499999999999999E-003    1.091346296059351E-022
 -4.399999999999999E-003   -4.434190920852586E-023
 -4.299999999999999E-003   -2.271362184154811E-022
 -4.199999999999999E-003   -4.235428958044261E-022
 -4.099999999999999E-003   -6.126729023633961E-022
 -3.999999999999999E-003   -7.698579563758842E-022
 -3.899999999999999E-003   -8.688290865537979E-022
 -3.799999999999999E-003   -8.845716163843793E-022
 -3.699999999999999E-003   -7.966535357800645E-022
 -3.599999999999999E-003   -5.927227113847439E-022
 -3.499999999999999E-003   -2.717806402107496E-022
 -3.399999999999999E-003    1.532155238837746E-022
 -3.299999999999999E-003    6.538853386842218E-022
 -3.199999999999999E-003    1.186514906990624E-021
 -3.099999999999999E-003    1.694026015711588E-021
 -2.999999999999999E-003    2.109986516795404E-021
 -2.899999999999999E-003    2.364608405104592E-021
 -2.799999999999999E-003    2.392427493314298E-021
 -2.699999999999999E-003    2.141089317924536E-021
 -2.599999999999999E-003    1.580412701318193E-021
 -2.499999999999999E-003    7.106949876637971E-022
 -2.399999999999999E-003   -4.308988758615974E-022
 -2.299999999999999E-003   -1.767029928042664E-021
 -2.199999999999999E-003   -3.180995285895908E-021
 -2.099999999999999E-003   -4.522403317962175E-021
 -1.999999999999999E-003   -5.618034064591354E-021
 -1.899999999999999E-003   -6.287641891121852E-021
 -1.799999999999999E-003   -6.363820158147373E-021
 -1.699999999999999E-003   -5.714385644108029E-021
 -1.599999999999999E-003   -4.265121992630583E-021
 -1.499999999999999E-003   -2.020257787084243E-021
 -1.399999999999999E-003    9.222004293196010E-022
 -1.299999999999999E-003    4.363121550759987E-021
 -1.199999999999999E-003    8.005333314628224E-021
 -1.099999999999999E-003    1.146882422925677E-020
 -9.999999999999989E-004    1.431865146566407E-020
 -8.999999999999990E-004    1.610473933033755E-020
 -7.999999999999990E-004    1.641120427554498E-020
 -6.999999999999989E-004    1.491125632876466E-020
 -5.999999999999990E-004    1.142231131934025E-020
 -4.999999999999989E-004    5.954909575771252E-021
 -3.999999999999989E-004   -1.251463840513738E-021
 -2.999999999999989E-004   -9.712310753588593E-021
 -1.999999999999989E-004   -1.870740873562779E-020
 -9.999999999999892E-005   -2.731912966474683E-020
  1.084202172485504E-018   -3.450075149216015E-020
  1.000000000000011E-004   -3.917239546702917E-020
  2.000000000000011E-004   -4.033857192006007E-020
  3.000000000000011E-004   -3.721767068619456E-020
  4.000000000000011E-004   -2.937059837351042E-020
  5.000000000000011E-004   -1.681351796555671E-020
  6.000000000000011E-004   -9.876535917340915E-023
  7.000000000000011E-004    1.965113407361416E-020
  8.000000000000011E-004    4.076872149627860E-020
  9.000000000000012E-004    6.113382476651738E-020
  1.000000000000001E-003    7.833403130201705E-020
  1.100000000000001E-003    8.988705655477490E-020
  1.200000000000001E-003    9.351038252090083E-020
  1.300000000000001E-003    8.741540834584943E-020
  1.400000000000001E-003    7.059667180066773E-020
  1.500000000000001E-003    4.308202555093400E-020
  1.600000000000001E-003    6.108320811942991E-021
  1.700000000000001E-003   -3.781048403187475E-020
  1.800000000000001E-003   -8.494909330894305E-020
  1.900000000000001E-003   -1.305859902509668E-019
  2.000000000000001E-003   -1.693687821153421E-019
  2.100000000000001E-003   -1.958135341568312E-019
  2.200000000000001E-003   -2.049037468542451E-019
  2.300000000000001E-003   -1.927372485665093E-019
  2.400000000000001E-003   -1.571551575218043E-019
  2.500000000000001E-003   -9.827807824338138E-020
  2.600000000000001E-003   -1.887259138602419E-020
  2.700000000000001E-003    7.552206447137020E-020
  2.800000000000001E-003    1.767615510994599E-019
  2.900000000000001E-003    2.745880556833588E-019
  3.000000000000001E-003    3.574434903380540E-019
  3.100000000000001E-003    4.135648053661653E-019
  3.200000000000001E-003    4.322830303416273E-019
  3.300000000000001E-003    4.054116225342484E-019
  3.400000000000001E-003    3.285806470027120E-019
  3.500000000000001E-003    2.023562199862904E-019
  3.600000000000001E-003    3.298274100897091E-020
  3.700000000000001E-003   -1.673978079210501E-019
  3.800000000000001E-003   -3.811595912948812E-019
  3.900000000000001E-003   -5.862951949079032E-019
  4.000000000000001E-003   -7.581931185677247E-019
  4.100000000000001E-003   -8.719982380206069E-019
  4.200000000000001E-003   -9.053814898301262E-019
  4.300000000000001E-003   -8.414719115571726E-019
  4.400000000000001E-003   -6.716451259787215E-019
  4.500000000000001E-003   -3.978306773093075E-019
  4.600000000000002E-003   -3.400081080862450E-020
  4.700000000000001E-003    3.934579274737192E-019
  4.800000000000001E-003    8.467098610103392E-019
  4.900000000000002E-003    1.278876244809857E-018
  5.000000000000001E-003    1.637840735997893E-018
  5.100000000000001E-003    1.871248689522160E-018
  5.200000000000001E-003    1.932328975512143E-018
  5.300000000000002E-003    1.786016679055125E-018
  5.400000000000001E-003    1.414739304511532E-018
  5.500000000000001E-003    8.231693326988935E-019
  5.600000000000002E-003    4.125112328670789E-020
  5.700000000000001E-003   -8.751031984883258E-019
  5.800000000000001E-003   -1.846089077202333E-018
  5.900000000000002E-003   -2.773055689627361E-018
  6.000000000000001E-003   -3.546423763719337E-018
  6.100000000000001E-003   -4.056042258145984E-018
  6.200000000000002E-003   -4.203216765998162E-018
  6.300000000000002E-003   -3.913340676338902E-018
  6.400000000000001E-003   -3.147830681890148E-018
  6.500000000000001E-003   -1.913951020858433E-018
  6.600000000000002E-003   -2.711305333398931E-019
  6.700000000000001E-003    1.667450636766473E-018
  6.800000000000001E-003    3.738889935217469E-018
  6.900000000000002E-003    5.740607694275033E-018
  7.000000000000001E-003    7.446218998092073E-018
  7.100000000000001E-003    8.626367542160392E-018
  7.200000000000002E-003    9.073003116841156E-018
  7.300000000000002E-003    8.624974872281845E-018
  7.400000000000001E-003    7.192370689113369E-018
  7.500000000000001E-003    4.776786024982349E-018
  7.600000000000002E-003    1.484747169634198E-018
  7.700000000000001E-003   -2.468153977767289E-018
  7.800000000000001E-003   -6.764198457239435E-018
  7.900000000000001E-003   -1.100240323836527E-017
  8.000000000000002E-003   -1.472899455688607E-017
  8.100000000000001E-003   -1.747788594290578E-017
  8.200000000000001E-003   -1.881825898954337E-017
  8.300000000000002E-003   -1.840516683044029E-017
  8.400000000000001E-003   -1.602819423088302E-017
  8.500000000000002E-003   -1.165272149171002E-017
  8.600000000000002E-003   -5.448365003610839E-018
  8.700000000000001E-003    2.200204494889222E-018
  8.800000000000002E-003    1.070365524174868E-017
  8.900000000000002E-003    1.930141576824844E-017
  9.000000000000001E-003    2.711774838509287E-017
  9.100000000000002E-003    3.323763935806995E-017
  9.200000000000002E-003    3.679716745323830E-017
  9.300000000000001E-003    3.708077574287415E-017
  9.400000000000002E-003    3.361611237831445E-017
  9.500000000000001E-003    2.625610276828774E-017
  9.600000000000001E-003    1.523790482359676E-017
  9.700000000000002E-003    1.209441799192346E-018
  9.800000000000001E-003   -1.478358220406258E-017
  9.900000000000001E-003   -3.135404657630973E-017
  1.000000000000000E-002   -4.687296116948679E-017
  1.010000000000000E-002   -5.960741999649484E-017
  1.020000000000000E-002   -6.788748334288656E-017
  1.030000000000000E-002   -7.028825357078542E-017
  1.040000000000000E-002   -6.581001769631779E-017
  1.050000000000000E-002   -5.403726890716442E-017
  1.060000000000000E-002   -3.525723095204278E-017
  1.070000000000000E-002   -1.052018479986475E-017
  1.080000000000000E-002    1.837221392345846E-017
  1.090000000000000E-002    4.895865356322062E-017
  1.100000000000000E-002    7.829058543102228E-017
  1.110000000000000E-002    1.031775658775376E-016
  1.120000000000000E-002    1.204891589969057E-016
  1.130000000000000E-002    1.274889358033165E-016
  1.140000000000000E-002    1.221696579367253E-016
  1.150000000000000E-002    1.035547067864897E-016
  1.160000000000000E-002    7.192982197203946E-017
  1.170000000000000E-002    2.897213037585471E-017
  1.180000000000000E-002   -2.225009333499011E-017
  1.190000000000000E-002   -7.742326535481175E-017
  1.200000000000000E-002   -1.312829173543182E-016
  1.210000000000000E-002   -1.780447226577693E-016
  1.220000000000000E-002   -2.119440530103468E-016
  1.230000000000000E-002   -2.278413090712803E-016
  1.240000000000000E-002   -2.218377950770071E-016
  1.250000000000000E-002   -1.918389928623815E-016
  1.260000000000000E-002   -1.379997063381530E-016
  1.270000000000000E-002   -6.298954027611906E-017
  1.280000000000000E-002    2.797152880510785E-017
  1.290000000000000E-002    1.273400057926295E-016
  1.300000000000000E-002    2.257473131753453E-016
  1.310000000000000E-002    3.127515208106556E-016
  1.320000000000000E-002    3.777956100554402E-016
  1.330000000000000E-002    4.112974255521772E-016
  1.340000000000000E-002    4.057741840507775E-016
  1.350000000000000E-002    3.568879059371824E-016
  1.360000000000000E-002    2.642929019758603E-016
  1.370000000000000E-002    1.321717795601856E-016
  1.380000000000000E-002   -3.063467639308038E-017
  1.390000000000000E-002   -2.109679457965525E-016
  1.400000000000000E-002   -3.921853339794518E-016
  1.410000000000000E-002   -5.554611449263267E-016
  1.420000000000000E-002   -6.814776160620838E-016
  1.430000000000000E-002   -7.523772599922060E-016
  1.440000000000000E-002   -7.538058412105091E-016
  1.450000000000000E-002   -6.768439741225848E-016
  1.460000000000000E-002   -5.196119640905163E-016
  1.470000000000000E-002   -2.883407345275008E-016
  1.480000000000000E-002    2.268750479451947E-018
  1.490000000000000E-002    3.295226238043217E-016
  1.500000000000000E-002    6.641010577162367E-016
  1.510000000000000E-002    9.722821708532508E-016
  1.520000000000000E-002    1.218896221663542E-015
  1.530000000000000E-002    1.370793064933372E-015
  1.540000000000000E-002    1.400524518148137E-015
  1.550000000000000E-002    1.289885736411576E-015
  1.560000000000000E-002    1.032930091095092E-015
  1.570000000000000E-002    6.380807262683187E-016
  1.580000000000000E-002    1.290104508422415E-016
  1.590000000000000E-002   -4.559512228394190E-016
  1.600000000000000E-002   -1.066000038534686E-015
  1.610000000000000E-002   -1.641592777486810E-015
  1.620000000000000E-002   -2.119536909962124E-015
  1.630000000000000E-002   -2.439069606366758E-015
  1.640000000000000E-002   -2.548412506996715E-015
  1.650000000000000E-002   -2.411182294342928E-015
  1.660000000000000E-002   -2.011974471545671E-015
  1.670000000000000E-002   -1.360443786046001E-015
  1.680000000000000E-002   -4.932805707645670E-016
  1.690000000000000E-002    5.263704839532331E-016
  1.700000000000000E-002    1.612290986403967E-015
  1.710000000000000E-002    2.661349065204212E-015
  1.720000000000000E-002    3.562126519548423E-015
  1.730000000000000E-002    4.205411283784882E-015
  1.740000000000000E-002    4.495685798101550E-015
  1.750000000000000E-002    4.362537809024019E-015
  1.760000000000000E-002    3.770807533090285E-015
  1.770000000000000E-002    2.728270246820516E-015
  1.780000000000000E-002    1.289779088068826E-015
  1.790000000000000E-002   -4.429727081999361E-016
  1.800000000000000E-002   -2.326545874458218E-015
  1.810000000000000E-002   -4.185737072647313E-015
  1.820000000000000E-002   -5.827977193456453E-015
  1.830000000000000E-002   -7.061154726209573E-015
  1.840000000000000E-002   -7.713418127845989E-015
  1.850000000000000E-002   -7.653125807984230E-015
  1.860000000000000E-002   -6.806902793603994E-015
  1.870000000000000E-002   -5.173718496156926E-015