 -4.000000000000000E-002    0.000000000000000E+000
 -3.990000000000000E-002    0.000000000000000E+000
 -3.980000000000000E-002    0.000000000000000E+000
 -3.970000000000000E-002    0.000000000000000E+000
 -3.960000000000000E-002    0.000000000000000E+000
 -3.950000000000000E-002    0.000000000000000E+000
 -3.940000000000000E-002    0.000000000000000E+000
 -3.930000000000000E-002    0.000000000000000E+000
 -3.920000000000000E-002    0.000000000000000E+000
 -3.910000000000000E-002    0.000000000000000E+000
 -3.900000000000000E-002    0.000000000000000E+000
 -3.890000000000000E-002    0.000000000000000E+000
 -3.880000000000000E-002    0.000000000000000E+000
 -3.870000000000000E-002    0.000000000000000E+000
 -3.860000000000000E-002    0.000000000000000E+000
 -3.850000000000000E-002    0.000000000000000E+000
 -3.840000000000000E-002    0.000000000000000E+000
 -3.830000000000000E-002    0.000000000000000E+000
 -3.820000000000000E-002    0.000000000000000E+000
 -3.810000000000000E-002    0.000000000000000E+000
 -3.800000000000000E-002    0.000000000000000E+000
 -3.790000000000000E-002    0.000000000000000E+000
 -3.780000000000000E-002    0.000000000000000E+000
 -3.770000000000000E-002    0.000000000000000E+000
 -3.760000000000000E-002    0.000000000000000E+000
 -3.750000000000000E-002    0.000000000000000E+000
 -3.740000000000000E-002    0.000000000000000E+000
 -3.730000000000000E-002    0.000000000000000E+000
 -3.720000000000000E-002    0.000000000000000E+000
 -3.710000000000000E-002    0.000000000000000E+000
 -3.700000000000000E-002    0.000000000000000E+000
 -3.690000000000000E-002    0.000000000000000E+000
 -3.680000000000000E-002    0.000000000000000E+000
 -3.670000000000000E-002    0.000000000000000E+000
 -3.660000000000000E-002    0.000000000000000E+000
 -3.650000000000000E-002    0.000000000000000E+000
 -3.640000000000000E-002    0.000000000000000E+000
 -3.630000000000000E-002    0.000000000000000E+000
 -3.620000000000000E-002    0.000000000000000E+000
 -3.610000000000000E-002    0.000000000000000E+000
 -3.600000000000000E-002    0.000000000000000E+000
 -3.590000000000000E-002    0.000000000000000E+000
 -3.580000000000000E-002    0.000000000000000E+000
 -3.570000000000000E-002    0.000000000000000E+000
 -3.560000000000000E-002    0.000000000000000E+000
 -3.550000000000000E-002    0.000000000000000E+000
 -3.540000000000000E-002    0.000000000000000E+000
 -3.530000000000000E-002    0.000000000000000E+000
 -3.520000000000000E-002    0.000000000000000E+000
 -3.510000000000000E-002    0.000000000000000E+000
 -3.500000000000000E-002    0.000000000000000E+000
 -3.490000000000000E-002    0.000000000000000E+000
 -3.480000000000000E-002    0.000000000000000E+000
 -3.470000000000000E-002    0.000000000000000E+000
 -3.460000000000000E-002    0.000000000000000E+000
 -3.450000000000000E-002    0.000000000000000E+000
 -3.440000000000000E-002    0.000000000000000E+000
 -3.430000000000000E-002    0.000000000000000E+000
 -3.420000000000000E-002    0.000000000000000E+000
 -3.410000000000000E-002    0.000000000000000E+000
 -3.400000000000000E-002    0.000000000000000E+000
 -3.390000000000000E-002    0.000000000000000E+000
 -3.380000000000000E-002    0.000000000000000E+000
 -3.370000000000000E-002   -5.694317058220838E-047
 -3.360000000000000E-002   -1.288538235409331E-046
 -3.350000000000000E-002   -3.018215470556319E-046
 -3.340000000000000E-002   -5.929520352708951E-046
 -3.330000000000000E-002   -1.113993417583066E-045
 -3.320000000000000E-002   -1.978898772708006E-045
 -3.310000000000000E-002   -3.238129898372258E-045
 -3.300000000000000E-002   -4.756779245627618E-045
 -3.290000000000000E-002   -6.464874155534313E-045
 -3.280000000000000E-002   -7.204413578783033E-045
 -3.270000000000000E-002   -6.895971238714626E-045
 -3.260000000000000E-002   -1.667999880429932E-045
 -3.250000000000000E-002    1.443987990860479E-044
 -3.240000000000000E-002    5.029511135913577E-044
 -3.230000000000000E-002    1.188200576356331E-043
 -3.220000000000000E-002    2.379050671025095E-043
 -3.210000000000000E-002    4.273856445116432E-043
 -3.200000000000000E-002    7.083942543307674E-043
 -3.190000000000000E-002    1.087103689430334E-042
 -3.180000000000000E-002    1.537965323282132E-042
 -3.170000000000000E-002    1.970201170028353E-042
 -3.160000000000000E-002    2.178728456822865E-042
 -3.150000000000000E-002    1.776675383167935E-042
 -3.140000000000000E-002    1.142039445108492E-043
 -3.130000000000000E-002   -3.799137664254978E-042
 -3.120000000000000E-002   -1.134263442195620E-041
 -3.110000000000000E-002   -2.425026916430112E-041
 -3.100000000000000E-002   -4.439718309406644E-041
 -3.090000000000000E-002   -7.329647553725064E-041
 -3.080000000000000E-002   -1.111494946663106E-040
 -3.070000000000000E-002   -1.552813202578115E-040
 -3.060000000000000E-002   -1.978123704682042E-040
 -3.050000000000000E-002   -2.225389642911056E-040
 -3.040000000000000E-002   -2.011892749568037E-040
 -3.030000000000000E-002   -8.961624434064802E-041
 -3.020000000000000E-002    1.749361053700171E-040
 -3.010000000000000E-002    6.735486833058325E-040
 -3.000000000000000E-002    1.499408526406892E-039
 -2.990000000000000E-002    2.741696281584664E-039
 -2.980000000000000E-002    4.454811807229609E-039
 -2.970000000000000E-002    6.607967318526050E-039
 -2.960000000000000E-002    9.011282169774633E-039
 -2.950000000000000E-002    1.121768039776135E-038
 -2.940000000000000E-002    1.240614764970455E-038
 -2.930000000000000E-002    1.126205967532120E-038
 -2.920000000000000E-002    5.885012469303738E-039
 -2.910000000000000E-002   -6.226353331847157E-039
 -2.900000000000000E-002   -2.804113117263826E-038
 -2.890000000000000E-002   -6.262185275249214E-038
 -2.880000000000000E-002   -1.124019809454043E-037
 -2.870000000000000E-002   -1.780096206348731E-037
 -2.860000000000000E-002   -2.565620298682517E-037
 -2.850000000000000E-002   -3.394290522591186E-037
 -2.840000000000000E-002   -4.095959564698746E-037
 -2.830000000000000E-002   -4.389590924358325E-037
 -2.820000000000000E-002   -3.861665292010342E-037
 -2.810000000000000E-002   -1.959563682099534E-037
 -2.800000000000000E-002    1.986853191328287E-037
 -2.790000000000000E-002    8.698979565085846E-037
 -2.780000000000000E-002    1.882024269161181E-036
 -2.770000000000000E-002    3.270687900402594E-036
 -2.760000000000000E-002    5.012773248083107E-036
 -2.750000000000000E-002    6.987509488481681E-036
 -2.740000000000000E-002    8.931029288233511E-036
 -2.730000000000000E-002    1.038993481189254E-035
 -2.720000000000000E-002    1.068350676617427E-035
 -2.710000000000000E-002    8.888972518240347E-036
 -2.700000000000000E-002    3.869100278968334E-036
 -2.690000000000000E-002   -5.634745663490963E-036
 -2.680000000000000E-002   -2.081949783039550E-035
 -2.670000000000000E-002   -4.252556884570381E-035
 -2.660000000000000E-002   -7.081813459790618E-035
 -2.650000000000000E-002   -1.044504834651485E-034
 -2.640000000000000E-002   -1.402439372601365E-034
 -2.630000000000000E-002   -1.724583901372941E-034
 -2.620000000000000E-002   -1.922762957890151E-034
 -2.610000000000000E-002   -1.875769051856713E-034
 -2.600000000000000E-002   -1.432287841990611E-034
 -2.590000000000000E-002   -4.216442133000050E-035
 -2.580000000000000E-002    1.324947265086270E-034
 -2.570000000000000E-002    3.940409700649973E-034
 -2.560000000000000E-002    7.474075607227556E-034
 -2.550000000000000E-002    1.183125783396744E-033
 -2.540000000000000E-002    1.670425668733111E-033
 -2.530000000000000E-002    2.150303501004643E-033
 -2.520000000000000E-002    2.529857394024225E-033
 -2.510000000000000E-002    2.679697719165472E-033
 -2.500000000000000E-002    2.436675790452934E-033
 -2.490000000000000E-002    1.614435370632964E-033
 -2.480000000000000E-002    2.421192709685968E-035
 -2.470000000000000E-002   -2.492263145681229E-033
 -2.460000000000000E-002   -6.017130525788291E-033
 -2.450000000000000E-002   -1.049942928865463E-032
 -2.440000000000000E-002   -1.569099353671627E-032
 -2.430000000000000E-002   -2.108298412751375E-032
 -2.420000000000000E-002   -2.585479950425143E-032
 -2.410000000000000E-002   -2.885106533927224E-032
 -2.400000000000000E-002   -2.860546285142194E-032
 -2.390000000000000E-002   -2.343154057741496E-032
 -2.380000000000000E-002   -1.159895288644370E-032
 -2.370000000000000E-002    8.392118603962997E-033
 -2.360000000000000E-002    3.743654916308720E-032
 -2.350000000000000E-002    7.536466785355774E-032
 -2.340000000000000E-002    1.204344790269882E-031
 -2.330000000000000E-002    1.688393531381270E-031
 -2.320000000000000E-002    2.143231476463854E-031
 -2.310000000000000E-002    2.480207856892648E-031
 -2.300000000000000E-002    2.586603172688746E-031
 -2.290000000000000E-002    2.332654588309812E-031
 -2.280000000000000E-002    1.584783066916311E-031
 -2.270000000000000E-002    2.257285792691383E-032
 -2.260000000000000E-002   -1.818541116791848E-031
 -2.250000000000000E-002   -4.546479631159600E-031
 -2.240000000000000E-002   -7.846035643680056E-031
 -2.230000000000000E-002   -1.146175112816722E-030
 -2.220000000000000E-002   -1.497023409079067E-030
 -2.210000000000000E-002   -1.777183121868702E-030
 -2.200000000000000E-002   -1.910713797045468E-030
 -2.190000000000000E-002   -1.810673039372765E-030
 -2.180000000000000E-002   -1.388074146197761E-030
 -2.170000000000000E-002   -5.651259106675890E-031
 -2.160000000000000E-002    7.075139541852099E-031
 -2.150000000000000E-002    2.430515356819695E-030
 -2.140000000000000E-002    4.534655284983258E-030
 -2.130000000000000E-002    6.861576013397117E-030
 -2.120000000000000E-002    9.150449948810548E-030
 -2.110000000000000E-002    1.103517430825954E-029
 -2.100000000000000E-002    1.205698777528432E-029
 -2.090000000000000E-002    1.169694744965326E-029
 -2.080000000000000E-002    9.431398626245334E-030
 -2.070000000000000E-002    4.811183866823176E-030
 -2.060000000000000E-002   -2.438127659414172E-030
 -2.050000000000000E-002   -1.230213428791782E-029
 -2.040000000000000E-002   -2.436186623092480E-029
 -2.030000000000000E-002   -3.769385817213248E-029
 -2.020000000000000E-002   -5.080795234194328E-029
 -2.010000000000000E-002   -6.164762884204915E-029
 -2.000000000000000E-002   -6.767762882425644E-029
 -1.990000000000000E-002   -6.607988226875101E-029
 -1.980000000000000E-002   -5.407008784677912E-029
 -1.970000000000000E-002   -2.933338310262592E-029
 -1.960000000000000E-002    9.441457929727307E-030
 -1.950000000000000E-002    6.197297182680434E-029
 -1.940000000000000E-002    1.258121439043892E-028
 -1.930000000000000E-002    1.958746616841088E-028
 -1.920000000000000E-002    2.641924339288854E-028
 -1.910000000000000E-002    3.200052560783881E-028
 -1.900000000000000E-002    3.503069314662206E-028
 -1.890000000000000E-002    3.409343192859203E-028
 -1.880000000000000E-002    2.782378916094044E-028
 -1.870000000000000E-002    1.512991328152563E-028
 -1.860000000000000E-002   -4.543513863609272E-029
 -1.850000000000000E-002   -3.093419810295278E-028
 -1.840000000000000E-002   -6.269890983675412E-028
 -1.830000000000000E-002   -9.721356634841617E-028
 -1.820000000000000E-002   -1.304892516012524E-027
 -1.810000000000000E-002   -1.572585024871466E-027
 -1.800000000000000E-002   -1.712800769770608E-027
 -1.790000000000000E-002   -1.658953916418929E-027
 -1.780000000000000E-002   -1.348444003180265E-027
 -1.770000000000000E-002   -7.331304421427977E-028
 -1.760000000000000E-002    2.085909011115971E-028
 -1.750000000000000E-002    1.459306092590460E-027
 -1.740000000000000E-002    2.951367850880862E-027
 -1.730000000000000E-002    4.559006262393013E-027
 -1.720000000000000E-002    6.096050469658398E-027
 -1.710000000000000E-002    7.321505290485622E-027
 -1.700000000000000E-002    7.954861866604631E-027
 -1.690000000000000E-002    7.702242213275038E-027
 -1.680000000000000E-002    6.293296261251118E-027
 -1.670000000000000E-002    3.527195647828742E-027
 -1.660000000000000E-002   -6.757715145486250E-028
 -1.650000000000000E-002   -6.222457442493806E-027
 -1.640000000000000E-002   -1.280223706747372E-026
 -1.630000000000000E-002   -1.985811593715372E-026
 -1.620000000000000E-002   -2.658277257197675E-026
 -1.610000000000000E-002   -3.194818833703209E-026
 -1.600000000000000E-002   -3.477552534126782E-026
 -1.590000000000000E-002   -3.384845112759730E-026
 -1.580000000000000E-002   -2.806799488770654E-026
 -1.570000000000000E-002   -1.664063556345754E-026
 -1.560000000000000E-002    7.159445971167963E-028
 -1.550000000000000E-002    2.357229476499175E-026
 -1.540000000000000E-002    5.062109208927129E-026
 -1.530000000000000E-002    7.957907432486867E-026
 -1.520000000000000E-002    1.071914113981303E-025
 -1.510000000000000E-002    1.293694835981665E-025
 -1.500000000000000E-002    1.414840064106155E-025
 -1.490000000000000E-002    1.388208550960541E-025
 -1.480000000000000E-002    1.171867210461676E-025
 -1.470000000000000E-002    7.362772690724943E-026
 -1.460000000000000E-002    7.197377980783598E-027
 -1.450000000000000E-002   -8.031514357686067E-026
 -1.440000000000000E-002   -1.838061571303136E-025
 -1.430000000000000E-002   -2.945502433844056E-025
 -1.420000000000000E-002   -4.002852189135154E-025
 -1.410000000000000E-002   -4.857924833736149E-025
 -1.400000000000000E-002   -5.340388998904800E-025
 -1.390000000000000E-002   -5.278897497724019E-025
 -1.380000000000000E-002   -4.523289266018014E-025
 -1.370000000000000E-002   -2.970359502237036E-025
 -1.360000000000000E-002   -5.907954237990220E-026
 -1.350000000000000E-002    2.545958769131843E-025
 -1.340000000000000E-002    6.252779264199618E-025
 -1.330000000000000E-002    1.021603993135653E-024
 -1.320000000000000E-002    1.400086493158688E-024
 -1.310000000000000E-002    1.707367652551378E-024
 -1.300000000000000E-002    1.884384121304485E-024
 -1.290000000000000E-002    1.872421580728514E-024
 -1.280000000000000E-002    1.620783579010215E-024
 -1.270000000000000E-002    1.095513499458803E-024
 -1.260000000000000E-002    2.883187110310734E-025
 -1.250000000000000E-002   -7.754093067697038E-025
 -1.240000000000000E-002   -2.030760913848095E-024
 -1.230000000000000E-002   -3.370999913233377E-024
 -1.220000000000000E-002   -4.650013371995018E-024
 -1.210000000000000E-002   -5.690462288076553E-024
 -1.200000000000000E-002   -6.298079745877739E-024
 -1.190000000000000E-002   -6.281884933495464E-024
 -1.180000000000000E-002   -5.479261071942473E-024
 -1.170000000000000E-002   -3.783937810130648E-024
 -1.160000000000000E-002   -1.174055478680307E-024
 -1.150000000000000E-002    2.263262237174790E-024
 -1.140000000000000E-002    6.314839876817325E-024
 -1.130000000000000E-002    1.063596999538847E-023
 -1.120000000000000E-002    1.476014788081051E-023
 -1.110000000000000E-002    1.812661362399283E-023
 -1.100000000000000E-002    2.012666520350064E-023
 -1.090000000000000E-002    2.016759049740863E-023
 -1.080000000000000E-002    1.775048997344869E-023
 -1.070000000000000E-002    1.255565051085656E-023
 -1.060000000000000E-002    4.526566301446026E-024
 -1.050000000000000E-002   -6.058240370883105E-024
 -1.040000000000000E-002   -1.853759264590753E-023
 -1.030000000000000E-002   -3.185599264026693E-023
 -1.020000000000000E-002   -4.459807977887106E-023
 -1.010000000000000E-002   -5.507590249528320E-023
 -1.000000000000000E-002   -6.147080996839387E-023
 -9.899999999999999E-003   -6.202519233147301E-023
 -9.800000000000000E-003   -5.527215345527495E-023
 -9.699999999999999E-003   -4.028350979830284E-023
 -9.599999999999999E-003   -1.690977137148778E-023
 -9.500000000000000E-003    1.401937302126276E-023
 -9.399999999999999E-003    5.056794577520134E-023
 -9.299999999999999E-003    8.967240396897389E-023
 -9.200000000000000E-003    1.272531653050655E-022
 -9.099999999999999E-003    1.584753741650889E-022
 -8.999999999999999E-003    1.781610357292283E-022
 -8.900000000000000E-003    1.813359586303731E-022
 -8.799999999999999E-003    1.638752499246070E-022
 -8.699999999999999E-003    1.231905910361301E-022
 -8.600000000000000E-003    5.888482100681956E-023
 -8.499999999999999E-003   -2.671303113457963E-023
 -8.399999999999999E-003   -1.282234612948385E-022
 -8.300000000000000E-003   -2.371887654242499E-022
 -8.199999999999999E-003   -3.424095638897836E-022
 -8.100000000000000E-003   -4.306843292196541E-022
 -8.000000000000000E-003   -4.879496057649953E-022
 -7.899999999999999E-003   -5.007695457806103E-022
 -7.800000000000000E-003   -4.580700011176757E-022
 -7.699999999999999E-003   -3.529607523647791E-022
 -7.599999999999999E-003   -1.844455195582516E-022
 -7.499999999999999E-003    4.120959616399118E-023
 -7.399999999999999E-003    3.096845923867578E-022
 -7.299999999999999E-003    5.986074957341592E-022
 -7.199999999999999E-003    8.785140442346822E-022
 -7.100000000000000E-003    1.114850467864991E-021
 -6.999999999999999E-003    1.270994932531739E-021
 -6.899999999999999E-003    1.312149077532279E-021
 -6.800000000000000E-003    1.209812249220235E-021
 -6.699999999999999E-003    9.464292636364664E-022
 -6.599999999999999E-003    5.196909868835933E-022
 -6.499999999999999E-003   -5.408874002751322E-023
 -6.399999999999999E-003   -7.381081725639048E-022
 -6.299999999999999E-003   -1.475248725220577E-021
 -6.199999999999999E-003   -2.190668379869586E-021
 -6.100000000000000E-003   -2.796995293846706E-021
 -5.999999999999999E-003   -3.202025260131559E-021
 -5.899999999999999E-003   -3.318512646962313E-021
 -5.800000000000000E-003   -3.075318942107200E-021
 -5.699999999999999E-003   -2.428874337699674E-021
 -5.599999999999999E-003   -1.373677660047435E-021
 -5.499999999999999E-003    4.958819879173357E-023
 -5.399999999999999E-003    1.749721997063226E-021
 -5.299999999999999E-003    3.585700596339993E-021
 -5.199999999999999E-003    5.373274206688870E-021
 -5.099999999999999E-003    6.897835674062146E-021
 -4.999999999999999E-003    7.933257458619340E-021
 -4.899999999999999E-003    8.265656837431576E-021
 -4.799999999999999E-003    7.720262969017664E-021
 -4.699999999999999E-003    6.188880453535163E-021
 -4.599999999999999E-003    3.654895539325432E-021
 -4.499999999999999E-003    2.124968306826549E-022
 -4.399999999999999E-003   -3.923162621626514E-021
 -4.299999999999999E-003   -8.417701283384957E-021
 -4.199999999999999E-003   -1.283311765734133E-020
 -4.099999999999999E-003   -1.665804046465237E-020
 -3.999999999999999E-003   -1.935181574039688E-020
 -3.899999999999999E-003   -2.039995892298799E-020
 -3.799999999999999E-003   -1.937669902935704E-020
 -3.699999999999999E-003   -1.600884388379641E-020
 -3.599999999999999E-003   -1.023397077234362E-020
 -3.499999999999999E-003   -2.245399609029684E-021
 -3.399999999999999E-003    7.483431631327825E-021
 -3.299999999999999E-003    1.820151179837188E-020
 -3.199999999999999E-003    2.891417761171946E-020
 -3.099999999999999E-003    3.844994022480956E-020
 -2.999999999999999E-003    4.555855181947665E-020
 -2.899999999999999E-003    4.903465379980525E-020
 -2.799999999999999E-003    4.785764368749650E-020
 -2.699999999999999E-003    4.133503706371773E-020
 -2.599999999999999E-003    2.923401827987719E-020
 -2.499999999999999E-003    1.188473180870378E-020
 -2.399999999999999E-003   -9.760789595218233E-021
 -2.299999999999999E-003   -3.412778864123856E-020
 -2.199999999999999E-003   -5.908567593223280E-020
 -2.099999999999999E-003   -8.208623071273947E-020
 -1.999999999999999E-003   -1.003697102691697E-019
 -1.899999999999999E-003   -1.112269540484629E-019
 -1.799999999999999E-003   -1.122980980274708E-019
 -1.699999999999999E-003   -1.018810251758621E-019
 -1.599999999999999E-003   -7.921761881379462E-020
 -1.499999999999999E-003   -4.472330150406146E-020
 -1.399999999999999E-003   -1.261893906064655E-022
 -1.299999999999999E-003    5.151311731115372E-020
 -1.199999999999999E-003    1.059215700962301E-019
 -1.099999999999999E-003    1.578816171483488E-019
 -9.999999999999989E-004    2.016409013256510E-019
 -8.999999999999990E-004    2.314402917817304E-019
 -7.999999999999990E-004    2.421217393423035E-019
 -6.999999999999989E-004    2.297619043325369E-019
 -5.999999999999990E-004    1.922676357676455E-019
 -4.999999999999989E-004    1.298636645930816E-019
 -3.999999999999989E-004    4.540473855762438E-020
 -2.999999999999989E-004   -5.554712410789454E-020
 -1.999999999999989E-004   -1.649216848764872E-019
 -9.999999999999892E-005   -2.726344004948610E-019
  1.084202172485504E-018   -3.673647792740560E-019
  1.000000000000011E-004   -4.375754039199534E-019
  2.000000000000011E-004   -4.726973715262457E-019
  3.000000000000011E-004   -4.643784895928750E-019
  4.000000000000011E-004   -4.076698870096185E-019
  5.000000000000011E-004   -3.020156117019254E-019
  6.000000000000011E-004   -1.519122444852681E-019
  7.000000000000011E-004    3.287726154446490E-020
  8.000000000000011E-004    2.376405198933588E-019
  9.000000000000012E-004    4.436018375171271E-019
  1.000000000000001E-003    6.293611947983466E-019
  1.100000000000001E-003    7.728090248850695E-019
  1.200000000000001E-003    8.533769400657599E-019
  1.300000000000001E-003    8.544301982001395E-019
  1.400000000000001E-003    7.655674958664261E-019
  1.500000000000001E-003    5.845682949106276E-019
  1.600000000000001E-003    3.187343412646735E-019
  1.700000000000001E-003   -1.460041404996134E-020
  1.800000000000001E-003   -3.885589742522491E-019
  1.900000000000001E-003   -7.682939051312962E-019
  2.000000000000001E-003   -1.113620722750132E-018
  2.100000000000001E-003   -1.382583030467021E-018
  2.200000000000001E-003   -1.535688760995813E-018
  2.300000000000001E-003   -1.540469884341591E-018
  2.400000000000001E-003   -1.375919508009114E-018
  2.500000000000001E-003   -1.036324990928949E-018
  2.600000000000001E-003   -5.340089273365589E-019
  2.700000000000001E-003    9.946070130774130E-020
  2.800000000000001E-003    8.139259489707847E-019
  2.900000000000001E-003    1.543344798857607E-018
  3.000000000000001E-003    2.210548163581089E-018
  3.100000000000001E-003    2.733826761968401E-018
  3.200000000000001E-003    3.034914612594626E-018
  3.300000000000001E-003    3.047725418437784E-018
  3.400000000000001E-003    2.727040081822073E-018
  3.500000000000001E-003    2.056238262465112E-018
  3.600000000000001E-003    1.053147299467771E-018
  3.700000000000001E-003   -2.268554165773669E-019
  3.800000000000001E-003   -1.691177098714379E-018
  3.900000000000001E-003   -3.214205882791732E-018
  4.000000000000001E-003   -4.645484081231034E-018
  4.100000000000001E-003   -5.821551397614116E-018
  4.200000000000001E-003   -6.580753090034081E-018
  4.300000000000001E-003   -6.779931735333962E-018
  4.400000000000001E-003   -6.311554065282545E-018
  4.500000000000001E-003   -5.119626956324946E-018
  4.600000000000002E-003   -3.212647005077252E-018
  4.700000000000001E-003   -6.718864451325592E-019
  4.800000000000001E-003    2.346413091372378E-018
  4.900000000000002E-003    5.615971824911872E-018
  5.000000000000001E-003    8.852970168711038E-018
  5.100000000000001E-003    1.173588770226618E-017
  5.200000000000001E-003    1.393167081313930E-017
  5.300000000000002E-003    1.512652470350086E-017
  5.400000000000001E-003    1.505889291998492E-017
  5.500000000000001E-003    1.355171919968788E-017
  5.600000000000002E-003    1.054077727168833E-017
  5.700000000000001E-003    6.095817927804228E-018
  5.800000000000001E-003    4.316215554378761E-019
  5.900000000000002E-003   -6.093384051873438E-018
  6.000000000000001E-003   -1.299234756753119E-017
  6.100000000000001E-003   -1.967930645097943E-017
  6.200000000000002E-003   -2.551150360732920E-017
  6.300000000000002E-003   -2.984230514633024E-017
  6.400000000000001E-003   -3.208093155449484E-017
  6.500000000000001E-003   -3.175418038176682E-017
  6.600000000000002E-003   -2.856457554652763E-017
  6.700000000000001E-003   -2.243898434014068E-017
  6.800000000000001E-003   -1.356211666676954E-017
  6.900000000000002E-003   -2.389887827922744E-018
  7.000000000000001E-003    1.036078466278283E-017
  7.100000000000001E-003    2.374754531263407E-017
  7.200000000000002E-003    3.666301228636269E-017
  7.300000000000002E-003    4.791716050181019E-017
  7.400000000000001E-003    5.633639505876854E-017
  7.500000000000001E-003    6.087192193728522E-017
  7.600000000000002E-003    6.070823420350457E-017
  7.700000000000001E-003    5.536177901514768E-017
  7.800000000000001E-003    4.475928248860973E-017
  7.900000000000001E-003    2.928661982987194E-017
  8.000000000000002E-003    9.800433535189825E-018
  8.100000000000001E-003   -1.240250425658649E-017
  8.200000000000001E-003   -3.565932123913408E-017
  8.300000000000002E-003   -5.805625844518171E-017
  8.400000000000001E-003   -7.757815710551463E-017
  8.500000000000002E-003   -9.228179517323000E-017
  8.600000000000002E-003   -1.004789659532468E-016
  8.700000000000001E-003   -1.009132080992655E-016
  8.800000000000002E-003   -9.291288768980377E-017
  8.900000000000002E-003   -7.650394253588121E-017
  9.000000000000001E-003   -5.246774974369495E-017
  9.100000000000002E-003   -2.233373610821108E-017
  9.200000000000002E-003    1.169901681202755E-017
  9.300000000000001E-003    4.690985134639413E-017
  9.400000000000002E-003    8.026689161134198E-017
  9.500000000000001E-003    1.086850945808091E-016
  9.600000000000001E-003    1.293113525168883E-016
  9.700000000000002E-003    1.398119223788767E-016
  9.800000000000001E-003    1.386343056032284E-016
  9.900000000000001E-003    1.252157229562404E-016
  1.000000000000000E-002    1.001136805201337E-016
  1.010000000000000E-002    6.503767795235251E-017
  1.020000000000000E-002    2.277158248808902E-017
  1.030000000000000E-002   -2.301708526804188E-017
  1.040000000000000E-002   -6.807123366579112E-017
  1.050000000000000E-002   -1.079224223582285E-016
  1.060000000000000E-002   -1.383225461709394E-016
  1.070000000000000E-002   -1.556912113106708E-016
  1.080000000000000E-002   -1.575352043476959E-016
  1.090000000000000E-002   -1.427943300898295E-016
  1.100000000000000E-002   -1.120728707789761E-016
  1.110000000000000E-002   -6.772132263669757E-017
  1.120000000000000E-002   -1.374574978881173E-017
  1.130000000000000E-002    4.446214680404398E-017
  1.140000000000000E-002    1.005655443022924E-016
  1.150000000000000E-002    1.478647161090751E-016
  1.160000000000000E-002    1.799759836882296E-016
  1.170000000000000E-002    1.915476296237260E-016
  1.180000000000000E-002    1.789433060012226E-016
  1.190000000000000E-002    1.408199050609973E-016
  1.200000000000000E-002    7.852875948483236E-017
  1.210000000000000E-002   -3.718711463296575E-018
  1.220000000000000E-002   -9.896426285358931E-017
  1.230000000000000E-002   -1.979125056505504E-016
  1.240000000000000E-002   -2.896299772217061E-016
  1.250000000000000E-002   -3.624927208273145E-016
  1.260000000000000E-002   -4.053154286881748E-016
  1.270000000000000E-002   -4.085698250597857E-016
  1.280000000000000E-002   -3.655796147355801E-016
  1.290000000000000E-002   -2.735704587325673E-016
  1.300000000000000E-002   -1.344561692240308E-016
  1.310000000000000E-002    4.474856378894946E-017
  1.320000000000000E-002    2.519676024897567E-016
  1.330000000000000E-002    4.706046120002055E-016
  1.340000000000000E-002    6.805911263323566E-016
  1.350000000000000E-002    8.598912845943675E-016
  1.360000000000000E-002    9.863774193795950E-016
  1.370000000000000E-002    1.039934615138979E-015
  1.380000000000000E-002    1.004621317683776E-015
  1.390000000000000E-002    8.706924589205645E-016
  1.400000000000000E-002    6.362779859626506E-016
  1.410000000000000E-002    3.085226211229641E-016
  1.420000000000000E-002   -9.596866418333106E-017
  1.430000000000000E-002   -5.515004835647468E-016
  1.440000000000000E-002   -1.024524976942286E-015
  1.450000000000000E-002   -1.475722687867648E-015
  1.460000000000000E-002   -1.862829540576577E-015
  1.470000000000000E-002   -2.144036226100869E-015
  1.480000000000000E-002   -2.281715265858784E-015
  1.490000000000000E-002   -2.246178237235521E-015
  1.500000000000000E-002   -2.019142577224278E-015
  1.510000000000000E-002   -1.596571247522251E-015
  1.520000000000000E-002   -9.905795507351715E-016
  1.530000000000000E-002   -2.301539456633461E-016
  1.540000000000000E-002    6.394959702013206E-016
  1.550000000000000E-002    1.559031808317907E-015
  1.560000000000000E-002    2.458489901867589E-015
  1.570000000000000E-002    3.262028421970980E-015
  1.580000000000000E-002    3.893643629228033E-015
  1.590000000000000E-002    4.283470729350188E-015
  1.600000000000000E-002    4.374193810404932E-015
  1.610000000000000E-002    4.127047582320952E-015
  1.620000000000000E-002    3.526879668688866E-015
  1.630000000000000E-002    2.585760121379501E-015
  1.640000000000000E-002    1.344701946894323E-015
  1.650000000000000E-002   -1.268178999291370E-016
  1.660000000000000E-002   -1.733724523381873E-015
  1.670000000000000E-002   -3.360574895188755E-015
  1.680000000000000E-002   -4.878973671862283E-015
  1.690000000000000E-002   -6.156760939976790E-015
  1.700000000000000E-002   -7.068415960726026E-015
  1.710000000000000E-002   -7.505936463075990E-015
  1.720000000000000E-002   -7.389374701343060E-015
  1.730000000000000E-002   -6.676095591227039E-015
  1.740000000000000E-002   -5.367919762756588E-015
  1.750000000000000E-002   -3.515335855547425E-015
  1.760000000000000E-002   -1.218127510172221E-015
  1.770000000000000E-002    1.377985722652628E-015
  1.780000000000000E-002    4.088860424082486E-015
  1.790000000000000E-002    6.703367312191825E-015
  1.800000000000000E-002    8.998269282237956E-015
  1.810000000000000E-002    1.075560811001043E-014
  1.820000000000000E-002    1.178150048197010E-014
  1.830000000000000E-002    1.192481907106219E-014
  1.840000000000000E-002    1.109423576641242E-014
  1.850000000000000E-002    9.271985042142730E-015
  1.860000000000000E-002    6.522809424001823E-015
  1.870000000000000E-002    2.996737491676568E-015