 -4.000000000000000E-002    0.000000000000000E+000
 -3.990000000000000E-002    0.000000000000000E+000
 -3.980000000000000E-002    0.000000000000000E+000
 -3.970000000000000E-002    0.000000000000000E+000
 -3.960000000000000E-002    0.000000000000000E+000
 -3.950000000000000E-002    0.000000000000000E+000
 -3.940000000000000E-002    0.000000000000000E+000
 -3.930000000000000E-002    0.000000000000000E+000
 -3.920000000000000E-002    0.000000000000000E+000
 -3.910000000000000E-002    0.000000000000000E+000
 -3.900000000000000E-002    0.000000000000000E+000
 -3.890000000000000E-002    0.000000000000000E+000
 -3.880000000000000E-002    0.000000000000000E+000
 -3.870000000000000E-002    0.000000000000000E+000
 -3.860000000000000E-002    0.000000000000000E+000
 -3.850000000000000E-002    0.000000000000000E+000
 -3.840000000000000E-002    0.000000000000000E+000
 -3.830000000000000E-002    0.000000000000000E+000
 -3.820000000000000E-002    0.000000000000000E+000
 -3.810000000000000E-002    0.000000000000000E+000
 -3.800000000000000E-002    0.000000000000000E+000
 -3.790000000000000E-002    0.000000000000000E+000
 -3.780000000000000E-002    0.000000000000000E+000
 -3.770000000000000E-002    0.000000000000000E+000
 -3.760000000000000E-002    0.000000000000000E+000
 -3.750000000000000E-002    0.000000000000000E+000
 -3.740000000000000E-002    0.000000000000000E+000
 -3.730000000000000E-002    0.000000000000000E+000
 -3.720000000000000E-002    0.000000000000000E+000
 -3.710000000000000E-002    0.000000000000000E+000
 -3.700000000000000E-002    0.000000000000000E+000
 -3.690000000000000E-002    0.000000000000000E+000
 -3.680000000000000E-002    0.000000000000000E+000
 -3.670000000000000E-002    0.000000000000000E+000
 -3.660000000000000E-002    0.000000000000000E+000
 -3.650000000000000E-002    0.000000000000000E+000
 -3.640000000000000E-002    0.000000000000000E+000
 -3.630000000000000E-002    0.000000000000000E+000
 -3.620000000000000E-002    0.000000000000000E+000
 -3.610000000000000E-002    0.000000000000000E+000
 -3.600000000000000E-002    0.000000000000000E+000
 -3.590000000000000E-002    0.000000000000000E+000
 -3.580000000000000E-002    0.000000000000000E+000
 -3.570000000000000E-002    0.000000000000000E+000
 -3.560000000000000E-002    6.414635304221270E-048
 -3.550000000000000E-002    1.282927060844254E-047
 -3.540000000000000E-002    2.993496475303259E-048
 -3.530000000000000E-002    5.986992950606518E-048
 -3.520000000000000E-002    4.539682703461009E-047
 -3.510000000000000E-002    2.980148965013968E-047
 -3.500000000000000E-002   -1.816827472415893E-048
 -3.490000000000000E-002   -3.135084489241232E-047
 -3.480000000000000E-002   -4.050589090601515E-047
 -3.470000000000000E-002    2.155194427602602E-046
 -3.460000000000000E-002   -8.316602764613220E-046
 -3.450000000000000E-002   -2.814074216330569E-045
 -3.440000000000000E-002   -5.731666908898460E-045
 -3.430000000000000E-002   -1.302746188676624E-044
 -3.420000000000000E-002   -2.664544489228122E-044
 -3.410000000000000E-002   -5.088189710820297E-044
 -3.400000000000000E-002   -9.017712694829027E-044
 -3.390000000000000E-002   -1.502561548655866E-043
 -3.380000000000000E-002   -2.367398926503400E-043
 -3.370000000000000E-002   -3.462815192563977E-043
 -3.360000000000000E-002   -4.581489109566864E-043
 -3.350000000000000E-002   -5.155362777643950E-043
 -3.340000000000000E-002   -3.927109745042716E-043
 -3.330000000000000E-002    1.516428726441418E-043
 -3.320000000000000E-002    1.542058680727730E-042
 -3.310000000000000E-002    4.466218964882118E-042
 -3.300000000000000E-002    9.955214091057399E-042
 -3.290000000000000E-002    1.943228355053523E-041
 -3.280000000000000E-002    3.466394465905956E-041
 -3.270000000000000E-002    5.749714548570111E-041
 -3.260000000000000E-002    8.921657454220922E-041
 -3.250000000000000E-002    1.292852073620880E-040
 -3.240000000000000E-002    1.731520972636697E-040
 -3.230000000000000E-002    2.088118728678713E-040
 -3.220000000000000E-002    2.118344657152665E-040
 -3.210000000000000E-002    1.388111606813994E-040
 -3.200000000000000E-002   -8.036021289231288E-041
 -3.190000000000000E-002   -5.500658202571886E-040
 -3.180000000000000E-002   -1.413768588870399E-039
 -3.170000000000000E-002   -2.851374826921089E-039
 -3.160000000000000E-002   -5.061912602271327E-039
 -3.150000000000000E-002   -8.221258470500127E-039
 -3.140000000000000E-002   -1.240163517979933E-038
 -3.130000000000000E-002   -1.743760114267661E-038
 -3.120000000000000E-002   -2.272379993063207E-038
 -3.110000000000000E-002   -2.693481090238195E-038
 -3.100000000000000E-002   -2.767055694875269E-038
 -3.090000000000000E-002   -2.105478371562913E-038
 -3.080000000000000E-002   -1.353289209378493E-039
 -3.070000000000000E-002    3.926465350469652E-038
 -3.060000000000000E-002    1.106230680986385E-037
 -3.050000000000000E-002    2.238052339635565E-037
 -3.040000000000000E-002    3.894064070023863E-037
 -3.030000000000000E-002    6.143099547343734E-037
 -3.020000000000000E-002    8.965015731126746E-037
 -3.010000000000000E-002    1.217499310594967E-036
 -3.000000000000000E-002    1.532219102144994E-036
 -2.990000000000000E-002    1.756571195728478E-036
 -2.980000000000000E-002    1.753877188366550E-036
 -2.970000000000000E-002    1.322396806478108E-036
 -2.960000000000000E-002    1.878468244350461E-037
 -2.950000000000000E-002   -1.993201125674146E-036
 -2.940000000000000E-002   -5.611040012111955E-036
 -2.930000000000000E-002   -1.105157732593647E-035
 -2.920000000000000E-002   -1.860491025658095E-035
 -2.910000000000000E-002   -2.832268130447725E-035
 -2.900000000000000E-002   -3.981652087494393E-035
 -2.890000000000000E-002   -5.199699216919863E-035
 -2.880000000000000E-002   -6.276527571262903E-035
 -2.870000000000000E-002   -6.868935174109665E-035
 -2.860000000000000E-002   -6.472356780506905E-035
 -2.850000000000000E-002   -4.406359242810070E-035
 -2.840000000000000E-002    1.731869927968934E-036
 -2.830000000000000E-002    8.218628842707871E-035
 -2.820000000000000E-002    2.067221883479910E-034
 -2.810000000000000E-002    3.826500407773011E-034
 -2.800000000000000E-002    6.121638676893644E-034
 -2.790000000000000E-002    8.882707403624024E-034
 -2.780000000000000E-002    1.189750083369728E-033
 -2.770000000000000E-002    1.475506077734139E-033
 -2.760000000000000E-002    1.679047632884112E-033
 -2.750000000000000E-002    1.704287996589399E-033
 -2.740000000000000E-002    1.424386072918794E-033
 -2.730000000000000E-002    6.858581950863922E-034
 -2.720000000000000E-002   -6.793903864181821E-034
 -2.710000000000000E-002   -2.831388187584773E-033
 -2.700000000000000E-002   -5.886362739256886E-033
 -2.690000000000000E-002   -9.866599202719509E-033
 -2.680000000000000E-002   -1.463656085988400E-032
 -2.670000000000000E-002   -1.982899535917918E-032
 -2.660000000000000E-002   -2.476901326391570E-032
 -2.650000000000000E-002   -2.840944106395386E-032
 -2.640000000000000E-002   -2.929648663890700E-032
 -2.630000000000000E-002   -2.559069010845084E-032
 -2.620000000000000E-002   -1.517206056863771E-032
 -2.610000000000000E-002    4.140148811408460E-033
 -2.600000000000000E-002    3.422695594693181E-032
 -2.590000000000000E-002    7.615333660824716E-032
 -2.580000000000000E-002    1.295016919871580E-031
 -2.570000000000000E-002    1.915923552190949E-031
 -2.560000000000000E-002    2.566701551837786E-031
 -2.550000000000000E-002    3.151873205123305E-031
 -2.540000000000000E-002    3.533688694813733E-031
 -2.530000000000000E-002    3.532969157996490E-031
 -2.520000000000000E-002    2.937868401151599E-031
 -2.510000000000000E-002    1.523322588257514E-031
 -2.500000000000000E-002   -9.164632984189684E-032
 -2.490000000000000E-002   -4.521305957436226E-031
 -2.480000000000000E-002   -9.304752313075027E-031
 -2.470000000000000E-002   -1.508379472299342E-030
 -2.460000000000000E-002   -2.140574226934944E-030
 -2.450000000000000E-002   -2.748383388920690E-030
 -2.440000000000000E-002   -3.215754888412448E-030
 -2.430000000000000E-002   -3.389766530594493E-030
 -2.420000000000000E-002   -3.087841569395673E-030
 -2.410000000000000E-002   -2.113890618999532E-030
 -2.400000000000000E-002   -2.851413887289731E-031
 -2.390000000000000E-002    2.529531300973573E-030
 -2.380000000000000E-002    6.360614171583945E-030
 -2.370000000000000E-002    1.108132980008851E-029
 -2.360000000000000E-002    1.634937361988355E-029
 -2.350000000000000E-002    2.155613551366681E-029
 -2.340000000000000E-002    2.579584504725440E-029
 -2.330000000000000E-002    2.786979430907264E-029
 -2.320000000000000E-002    2.634210842255788E-029
 -2.310000000000000E-002    1.966288573116075E-029
 -2.300000000000000E-002    6.370746411922740E-030
 -2.290000000000000E-002   -1.462060786478979E-029
 -2.280000000000000E-002   -4.365947381508314E-029
 -2.270000000000000E-002   -7.994037248628833E-029
 -2.260000000000000E-002   -1.210790590506242E-028
 -2.250000000000000E-002   -1.627436841398413E-028
 -2.240000000000000E-002   -1.984286607279264E-028
 -2.230000000000000E-002   -2.194746172890495E-028
 -2.220000000000000E-002   -2.154447887937074E-028
 -2.210000000000000E-002   -1.749609491948077E-028
 -2.200000000000000E-002   -8.707461408912987E-029
 -2.190000000000000E-002    5.680254834942594E-029
 -2.180000000000000E-002    2.604631062659965E-028
 -2.170000000000000E-002    5.201218733740795E-028
 -2.160000000000000E-002    8.215700960706615E-028
 -2.150000000000000E-002    1.137682458903559E-027
 -2.140000000000000E-002    1.426817244216376E-027
 -2.130000000000000E-002    1.632746086070292E-027
 -2.120000000000000E-002    1.686781378141290E-027
 -2.110000000000000E-002    1.512717027445387E-027
 -2.100000000000000E-002    1.035027897180089E-027
 -2.090000000000000E-002    1.904530072336420E-028
 -2.080000000000000E-002   -1.057363058139884E-027
 -2.070000000000000E-002   -2.701100112183767E-027
 -2.060000000000000E-002   -4.672486388915964E-027
 -2.050000000000000E-002   -6.826884751663761E-027
 -2.040000000000000E-002   -8.932768235842494E-027
 -2.030000000000000E-002   -1.066960315819551E-026
 -2.020000000000000E-002   -1.163782636811758E-026
 -2.010000000000000E-002   -1.138421731520116E-026
 -2.000000000000000E-002   -9.445085138797090E-027
 -1.990000000000000E-002   -5.407916510960594E-027
 -1.980000000000000E-002    1.010202472419510E-027
 -1.970000000000000E-002    9.872244776609123E-027
 -1.960000000000000E-002    2.092731656311951E-026
 -1.950000000000000E-002    3.352520231121428E-026
 -1.940000000000000E-002    4.655469738368728E-026
 -1.930000000000000E-002    5.842326340746406E-026
 -1.920000000000000E-002    6.709621072872855E-026
 -1.910000000000000E-002    7.021179625385948E-026
 -1.900000000000000E-002    6.528357344206534E-026
 -1.890000000000000E-002    4.999363229869891E-026
 -1.880000000000000E-002    2.256817491029633E-026
 -1.870000000000000E-002   -1.778709439500240E-026
 -1.860000000000000E-002   -7.043095392216226E-026
 -1.850000000000000E-002   -1.328656554049759E-025
 -1.840000000000000E-002   -2.004211279704914E-025
 -1.830000000000000E-002   -2.661240765782844E-025
 -1.820000000000000E-002   -3.208333771429135E-025
 -1.810000000000000E-002   -3.537145673349859E-025
 -1.800000000000000E-002   -3.531028149255792E-025
 -1.790000000000000E-002   -3.077684776686699E-025
 -1.780000000000000E-002   -2.085479893437708E-025
 -1.770000000000000E-002   -5.023964376803729E-026
 -1.760000000000000E-002    1.664033643208222E-025
 -1.750000000000000E-002    4.328210735051868E-025
 -1.740000000000000E-002    7.312311219777379E-025
 -1.730000000000000E-002    1.033981220264476E-024
 -1.720000000000000E-002    1.304003123848460E-024
 -1.710000000000000E-002    1.496662183955296E-024
 -1.700000000000000E-002    1.563195282973234E-024
 -1.690000000000000E-002    1.455781580995940E-024
 -1.680000000000000E-002    1.134083213744593E-024
 -1.670000000000000E-002    5.728385324063084E-025
 -1.660000000000000E-002   -2.301722375171423E-025
 -1.650000000000000E-002   -1.246737781724802E-024
 -1.640000000000000E-002   -2.412560620724620E-024
 -1.630000000000000E-002   -3.624623840491866E-024
 -1.620000000000000E-002   -4.742842723853042E-024
 -1.610000000000000E-002   -5.597098207240586E-024
 -1.600000000000000E-002   -6.000324738649869E-024
 -1.590000000000000E-002   -5.767766921964781E-024
 -1.580000000000000E-002   -4.741691675651665E-024
 -1.570000000000000E-002   -2.819919690380685E-024
 -1.560000000000000E-002    1.444608594815208E-026
 -1.550000000000000E-002    3.665660729078577E-024
 -1.540000000000000E-002    7.904647388806898E-024
 -1.530000000000000E-002    1.235965611566665E-023
 -1.520000000000000E-002    1.652279332206201E-023
 -1.510000000000000E-002    1.977621851520298E-023
 -1.500000000000000E-002    2.144026271134937E-023
 -1.490000000000000E-002    2.084348311535900E-023
 -1.480000000000000E-002    1.741186697513678E-023
 -1.470000000000000E-002    1.077098979440430E-023
 -1.460000000000000E-002    8.515528508298406E-025
 -1.450000000000000E-002   -1.201444709971551E-023
 -1.440000000000000E-002   -2.702208427527672E-023
 -1.430000000000000E-002   -4.286258547079562E-023
 -1.420000000000000E-002   -5.774850780327663E-023
 -1.410000000000000E-002   -6.950763293243878E-023
 -1.400000000000000E-002   -7.575236877172627E-023
 -1.390000000000000E-002   -7.412412745651638E-023
 -1.380000000000000E-002   -6.260177133255500E-023
 -1.370000000000000E-002   -3.985251179139318E-023
 -1.360000000000000E-002   -5.591878433366718E-024
 -1.350000000000000E-002    3.909054348639661E-023
 -1.340000000000000E-002    9.149043670032566E-023
 -1.330000000000000E-002    1.471865615064956E-022
 -1.320000000000000E-002    2.001273071824419E-022
 -1.310000000000000E-002    2.429460189743938E-022
 -1.300000000000000E-002    2.675251868468800E-022
 -1.290000000000000E-002    2.658062673086764E-022
 -1.280000000000000E-002    2.308066612094525E-022
 -1.270000000000000E-002    1.577724226450288E-022
 -1.260000000000000E-002    4.535726773203206E-023
 -1.250000000000000E-002   -1.033117836043109E-022
 -1.240000000000000E-002   -2.798439309732367E-022
 -1.230000000000000E-002   -4.702380115380467E-022
 -1.220000000000000E-002   -6.551366088275367E-022
 -1.210000000000000E-002   -8.108019708917409E-022
 -1.200000000000000E-002   -9.108763369246018E-022
 -1.190000000000000E-002   -9.289087030105865E-022
 -1.180000000000000E-002   -8.415292659758325E-022
 -1.170000000000000E-002   -6.320453171298543E-022
 -1.160000000000000E-002   -2.941237367174111E-022
 -1.150000000000000E-002    1.648677080616822E-022
 -1.140000000000000E-002    7.213475640466020E-022
 -1.130000000000000E-002    1.334345537349979E-021
 -1.120000000000000E-002    1.946129007208365E-021
 -1.110000000000000E-002    2.484989142997435E-021
 -1.100000000000000E-002    2.870367810959998E-021
 -1.090000000000000E-002    3.020265759246413E-021
 -1.080000000000000E-002    2.860580829916565E-021
 -1.070000000000000E-002    2.335710003424591E-021
 -1.060000000000000E-002    1.419444069558686E-021
 -1.050000000000000E-002    1.249180543471493E-022
 -1.040000000000000E-002   -1.487784345221147E-021
 -1.030000000000000E-002   -3.307821360615660E-021
 -1.020000000000000E-002   -5.174894473272958E-021
 -1.010000000000000E-002   -6.886668786305039E-021
 -1.000000000000000E-002   -8.212819867374705E-021
 -9.899999999999999E-003   -8.915522289102230E-021
 -9.800000000000000E-003   -8.775405561852339E-021
 -9.699999999999999E-003   -7.621121915889337E-021
 -9.599999999999999E-003   -5.359835855079989E-021
 -9.500000000000000E-003   -2.005244054207998E-021
 -9.399999999999999E-003    2.300717609726790E-021
 -9.299999999999999E-003    7.276406069555260E-021
 -9.200000000000000E-003    1.250280074253168E-020
 -9.099999999999999E-003    1.744235544431994E-020
 -8.999999999999999E-003    2.147567438843803E-020
 -8.900000000000000E-003    2.395554719494703E-020
 -8.799999999999999E-003    2.427571117507019E-020
 -8.699999999999999E-003    2.194936732051405E-020
 -8.600000000000000E-003    1.669038661573765E-020
 -8.499999999999999E-003    8.488223300166490E-021
 -8.399999999999999E-003   -2.333478934642805E-021
 -8.300000000000000E-003   -1.508488159762418E-020
 -8.199999999999999E-003   -2.871369615863920E-020
 -8.100000000000000E-003   -4.185177020718673E-020
 -8.000000000000000E-003   -5.290779349526698E-020
 -7.899999999999999E-003   -6.020480139808384E-020
 -7.800000000000000E-003   -6.215575835434126E-020
 -7.699999999999999E-003   -5.746441456233076E-020
 -7.599999999999999E-003   -4.533342497281967E-020
 -7.499999999999999E-003   -2.565689353660029E-020
 -7.399999999999999E-003    8.279978549615872E-022
 -7.299999999999999E-003    3.245609696135965E-020
 -7.199999999999999E-003    6.663929894926184E-020
 -7.100000000000000E-003    9.997889313967106E-020
 -6.999999999999999E-003    1.284937002216916E-019
 -6.899999999999999E-003    1.479605596462773E-019
 -6.800000000000000E-003    1.543501363437237E-019
 -6.699999999999999E-003    1.443271792623262E-019
 -6.599999999999999E-003    1.157698305345154E-019
 -6.499999999999999E-003    6.825241608656004E-020
 -6.399999999999999E-003    3.429370559387564E-021
 -6.299999999999999E-003   -7.474314045728114E-020
 -6.199999999999999E-003   -1.600047310113350E-019
 -6.100000000000000E-003   -2.440500732300552E-019
 -5.999999999999999E-003   -3.170712618449330E-019
 -5.899999999999999E-003   -3.685758223043952E-019
 -5.800000000000000E-003   -3.884404676778290E-019
 -5.699999999999999E-003   -3.681266445431320E-019
 -5.599999999999999E-003   -3.019504336021781E-019
 -5.499999999999999E-003   -1.882747553506755E-019
 -5.399999999999999E-003   -3.047412694181070E-020
 -5.299999999999999E-003    1.624792711921544E-019
 -5.199999999999999E-003    3.759449253377118E-019
 -5.099999999999999E-003    5.901625439833153E-019
 -4.999999999999999E-003    7.814757969373740E-019
 -4.899999999999999E-003    9.242165290234524E-019
 -4.799999999999999E-003    9.931650901799141E-019
 -4.699999999999999E-003    9.664173534703626E-019
 -4.599999999999999E-003    8.284159297647138E-019
 -4.499999999999999E-003    5.728395570213539E-019
 -4.399999999999999E-003    2.050068575190054E-019
 -4.299999999999999E-003   -2.565582403030645E-019
 -4.199999999999999E-003   -7.797204756652544E-019
 -4.099999999999999E-003   -1.319741431128611E-018
 -3.999999999999999E-003   -1.821837440055210E-018
 -3.899999999999999E-003   -2.225286056750930E-018
 -3.799999999999999E-003   -2.468904509577340E-018
 -3.699999999999999E-003   -2.497539395114493E-018
 -3.599999999999999E-003   -2.269046925188421E-018
 -3.499999999999999E-003   -1.761085579472666E-018
 -3.399999999999999E-003   -9.769571980161193E-019
 -3.299999999999999E-003    5.029460443101018E-020
 -3.199999999999999E-003    1.256269610538184E-018
 -3.099999999999999E-003    2.546667942426799E-018
 -2.999999999999999E-003    3.802181115347840E-018
 -2.899999999999999E-003    4.886860470942542E-018
 -2.799999999999999E-003    5.659649014200701E-018
 -2.699999999999999E-003    5.988356462190123E-018
 -2.599999999999999E-003    5.764998745903362E-018
 -2.499999999999999E-003    4.921073682034036E-018
 -2.399999999999999E-003    3.441149310110138E-018
 -2.299999999999999E-003    1.373045190921934E-018
 -2.199999999999999E-003   -1.167027984859650E-018
 -2.099999999999999E-003   -3.995694383729529E-018
 -1.999999999999999E-003   -6.870911038830678E-018
 -1.899999999999999E-003   -9.507949146423934E-018
 -1.799999999999999E-003   -1.160235506560364E-017
 -1.699999999999999E-003   -1.285854226319787E-017
 -1.599999999999999E-003   -1.302186163262300E-017
 -1.499999999999999E-003   -1.191128485508827E-017
 -1.399999999999999E-003   -9.449369815311577E-018
 -1.299999999999999E-003   -5.685901265408618E-018
 -1.199999999999999E-003   -8.117710365171333E-019
 -1.099999999999999E-003    4.839843797439117E-018
 -9.999999999999989E-004    1.080703528646464E-017
 -8.999999999999990E-004    1.652823722424040E-017
 -7.999999999999990E-004    2.138602276940192E-017
 -6.999999999999989E-004    2.476325989463428E-017
 -5.999999999999990E-004    2.610744558490689E-017
 -4.999999999999989E-004    2.499770203139596E-017
 -3.999999999999989E-004    2.120770727059483E-017
 -2.999999999999989E-004    1.475734703573936E-017
 -1.999999999999989E-004    5.945972634253675E-018
 -9.999999999999892E-005   -4.638937879733555E-018
  1.084202172485504E-018   -1.614222145936920E-017
  1.000000000000011E-004   -2.749263646023743E-017
  2.000000000000011E-004   -3.748472129902888E-017
  3.000000000000011E-004   -4.488657890821076E-017
  4.000000000000011E-004   -4.856608633147758E-017
  5.000000000000011E-004   -4.762467012929328E-017
  6.000000000000011E-004   -4.152571233832758E-017
  7.000000000000011E-004   -3.020316597447109E-017
  8.000000000000011E-004   -1.413602422725920E-017
  9.000000000000012E-004    5.624171625948434E-018
  1.000000000000001E-003    2.748248981849081E-017
  1.100000000000001E-003    4.939155509221582E-017
  1.200000000000001E-003    6.900363838327960E-017
  1.300000000000001E-003    8.387663431131436E-017
  1.400000000000001E-003    9.172001725771855E-017
  1.500000000000001E-003    9.066043079831896E-017
  1.600000000000001E-003    7.950196485159434E-017
  1.700000000000001E-003    5.795271182243565E-017
  1.800000000000001E-003    2.678887594985252E-017
  1.900000000000001E-003   -1.206989407674031E-017
  2.000000000000001E-003   -5.559480427255870E-017
  2.100000000000001E-003   -9.980402071868012E-017
  2.200000000000001E-003   -1.400420902884691E-016
  2.300000000000001E-003   -1.713709862049365E-016
  2.400000000000001E-003   -1.890484493459896E-016
  2.500000000000001E-003   -1.890557531962802E-016
  2.600000000000001E-003   -1.686274423214366E-016
  2.700000000000001E-003   -1.267279520196928E-016
  2.800000000000001E-003   -6.441786446872738E-017
  2.900000000000001E-003    1.494408603458058E-017
  3.000000000000001E-003    1.057077909730941E-016
  3.100000000000001E-003    2.001765247695145E-016
  3.200000000000001E-003    2.890986633023829E-016
  3.300000000000001E-003    3.623910616281656E-016
  3.400000000000001E-003    4.100521947250188E-016
  3.500000000000001E-003    4.231989800214296E-016
  3.600000000000001E-003    3.951383062155604E-016
  3.700000000000001E-003    3.223685287288089E-016
  3.800000000000001E-003    2.053992619415072E-016
  3.900000000000001E-003    4.928018494371009E-017
  4.000000000000001E-003   -1.362550851641474E-016
  4.100000000000001E-003   -3.370981552823746E-016
  4.200000000000001E-003   -5.355592610667568E-016
  4.300000000000001E-003   -7.116319300024231E-016
  4.400000000000001E-003   -8.446644530508101E-016
  4.500000000000001E-003   -9.153271683380952E-016
  4.600000000000002E-003   -9.077159231236510E-016
  4.700000000000001E-003   -8.114000719135797E-016
  4.800000000000001E-003   -6.232022590581191E-016
  4.900000000000002E-003   -3.484955907621949E-016
  5.000000000000001E-003   -1.826113124473023E-018
  5.100000000000001E-003    3.932928126480546E-016
  5.200000000000001E-003    8.054993780092479E-016
  5.300000000000002E-003    1.197624253168622E-015
  5.400000000000001E-003    1.529569265038510E-015
  5.500000000000001E-003    1.761844731909390E-015
  5.600000000000002E-003    1.859499803568510E-015
  5.700000000000001E-003    1.796103374063915E-015
  5.800000000000001E-003    1.557388479882447E-015
  5.900000000000002E-003    1.144156759552055E-015
  6.000000000000001E-003    5.740621383207401E-016
  6.100000000000001E-003   -1.180404130269127E-016
  6.200000000000002E-003   -8.813930146159732E-016
  6.300000000000002E-003   -1.652350573054766E-015
  6.400000000000001E-003   -2.359027197733773E-015
  6.500000000000001E-003   -2.927305142546182E-015
  6.600000000000002E-003   -3.287778901527445E-015
  6.700000000000001E-003   -3.383054466089493E-015
  6.800000000000001E-003   -3.174723063885122E-015
  6.900000000000002E-003   -2.649278404237410E-015
  7.000000000000001E-003   -1.822266228113457E-015
  7.100000000000001E-003   -7.400478179058842E-016
  7.200000000000002E-003    5.212798826810381E-016
  7.300000000000002E-003    1.860019866213929E-015
  7.400000000000001E-003    3.156022077746766E-015
  7.500000000000001E-003    4.280456003312760E-015
  7.600000000000002E-003    5.107551018293232E-015
  7.700000000000001E-003    5.527342271611299E-015
  7.800000000000001E-003    5.458270831983596E-015
  7.900000000000001E-003    4.858347651191216E-015
  8.000000000000002E-003    3.733606123799285E-015
  8.100000000000001E-003    2.142682954084165E-015
  8.200000000000001E-003    1.966334330532005E-016
  8.300000000000002E-003   -1.946545233232306E-015
  8.400000000000001E-003   -4.092725326656938E-015
  8.500000000000002E-003   -6.027290207916199E-015
  8.600000000000002E-003   -7.534581794008747E-015
  8.700000000000001E-003   -8.419608675627964E-015
  8.800000000000002E-003   -8.530059206118528E-015
  8.900000000000002E-003   -7.776426959457376E-015
  9.000000000000001E-003   -6.147986001351524E-015
  9.100000000000002E-003   -3.722515710498275E-015
  9.200000000000002E-003   -6.680876848043323E-016
  9.300000000000001E-003    2.764178936047680E-015
  9.400000000000002E-003    6.256661738725701E-015
  9.500000000000001E-003    9.450455406113964E-015
  9.600000000000001E-003    1.197768712464827E-014
  9.700000000000002E-003    1.349840187488052E-014
  9.800000000000001E-003    1.373879670034169E-014
  9.900000000000001E-003    1.252702616052884E-014
  1.000000000000000E-002    9.822654428986515E-015
  1.010000000000000E-002    5.735998146854959E-015
  1.020000000000000E-002    5.342224438384226E-016
  1.030000000000000E-002   -5.367930846313311E-015
  1.040000000000000E-002   -1.143363919048430E-014
  1.050000000000000E-002   -1.704495270225144E-014
  1.060000000000000E-002   -2.155681586590035E-014
  1.070000000000000E-002   -2.436014396560020E-014
  1.080000000000000E-002   -2.494857446764124E-014
  1.090000000000000E-002   -2.298250121036850E-014
  1.100000000000000E-002   -1.834359925813749E-014
  1.110000000000000E-002   -1.117315101034120E-014
  1.120000000000000E-002   -1.888488561891833E-015
  1.130000000000000E-002    8.826689924729084E-015
  1.140000000000000E-002    2.006009642124446E-014
  1.150000000000000E-002    3.073607750334021E-014
  1.160000000000000E-002    3.970494664697732E-014
  1.170000000000000E-002    4.584999526142758E-014
  1.180000000000000E-002    4.820351707153642E-014
  1.190000000000000E-002    4.606116925463849E-014
  1.200000000000000E-002    3.908296578625412E-014
  1.210000000000000E-002    2.736931734601091E-014
  1.220000000000000E-002    1.150167113946718E-014
  1.230000000000000E-002   -7.460162346254638E-015
  1.240000000000000E-002   -2.802862134614685E-014
  1.250000000000000E-002   -4.838715617739469E-014
  1.260000000000000E-002   -6.653240995216870E-014
  1.270000000000000E-002   -8.045067254722321E-014
  1.280000000000000E-002   -8.831457872571590E-014
  1.290000000000000E-002   -8.868276791452316E-014
  1.300000000000000E-002   -8.068303429977944E-014
  1.310000000000000E-002   -6.415906596853733E-014
  1.320000000000000E-002   -3.976239376713920E-014
  1.330000000000000E-002   -8.974677091474943E-015
  1.340000000000000E-002    2.594912705292988E-014
  1.350000000000000E-002    6.211941741700493E-014
  1.360000000000000E-002    9.622695251769474E-014
  1.370000000000000E-002    1.248211844361483E-013
  1.380000000000000E-002    1.446307613217576E-013
  1.390000000000000E-002    1.528988763216953E-013
  1.400000000000000E-002    1.477020624463245E-013
  1.410000000000000E-002    1.282193158525631E-013
  1.420000000000000E-002    9.492025907915385E-014
  1.430000000000000E-002    4.964560385718877E-014
  1.440000000000000E-002   -4.438300338046103E-015
  1.450000000000000E-002   -6.301894030883585E-014
  1.460000000000000E-002   -1.209462596345058E-013
  1.470000000000000E-002   -1.726528335782696E-013
  1.480000000000000E-002   -2.126546414045333E-013
  1.490000000000000E-002   -2.360913089936501E-013
  1.500000000000000E-002   -2.392560186718743E-013
  1.510000000000000E-002   -2.200622924216829E-013
  1.520000000000000E-002   -1.783955169543711E-013
  1.530000000000000E-002   -1.163041341867886E-013
  1.540000000000000E-002   -3.799615145783867E-014
  1.550000000000000E-002    5.037605972377831E-014
  1.560000000000000E-002    1.411414375625818E-013
  1.570000000000000E-002    2.257239419432999E-013
  1.580000000000000E-002    2.954005861090152E-013
  1.590000000000000E-002    3.421424901763639E-013
  1.600000000000000E-002    3.594633847690373E-013
  1.610000000000000E-002    3.431925139204874E-013
  1.620000000000000E-002    2.920886081319559E-013
  1.630000000000000E-002    2.082199835225596E-013
  1.640000000000000E-002    9.705216447988629E-014
  1.650000000000000E-002   -3.279199245237843E-014
  1.660000000000000E-002   -1.701054879441658E-013
  1.670000000000000E-002   -3.019757972762209E-013
  1.680000000000000E-002   -4.149104381112543E-013
  1.690000000000000E-002   -4.961189185542271E-013
  1.700000000000000E-002   -5.348384560105040E-013
  1.710000000000000E-002   -5.235756503904133E-013
  1.720000000000000E-002   -4.591338853585980E-013
  1.730000000000000E-002   -3.433053507747195E-013
  1.740000000000000E-002   -1.831298880937010E-013
  1.750000000000000E-002    9.343310821043765E-015
  1.760000000000000E-002    2.178117522173858E-013
  1.770000000000000E-002    4.229622879122688E-013
  1.780000000000000E-002    6.041215928555709E-013
  1.790000000000000E-002    7.411843117956216E-013
  1.800000000000000E-002    8.166541013339343E-013
  1.810000000000000E-002    8.176030159005918E-013
  1.820000000000000E-002    7.373493474551214E-013
  1.830000000000000E-002    5.766616558488811E-013
  1.840000000000000E-002    3.443306680686990E-013
  1.850000000000000E-002    5.699572015612153E-014
  1.860000000000000E-002   -2.618193342373557E-013
  1.870000000000000E-002   -5.834356539668893E-013