 -4.000000000000000E-002    0.000000000000000E+000
 -3.990000000000000E-002    0.000000000000000E+000
 -3.980000000000000E-002    0.000000000000000E+000
 -3.970000000000000E-002    0.000000000000000E+000
 -3.960000000000000E-002    0.000000000000000E+000
 -3.950000000000000E-002    0.000000000000000E+000
 -3.940000000000000E-002    0.000000000000000E+000
 -3.930000000000000E-002    0.000000000000000E+000
 -3.920000000000000E-002    0.000000000000000E+000
 -3.910000000000000E-002    3.583131971767717E-031
 -3.900000000000000E-002    5.320141406799686E-030
 -3.890000000000000E-002    3.862064935155804E-029
 -3.880000000000000E-002    1.727981671168301E-028
 -3.870000000000000E-002    4.507345739986114E-028
 -3.860000000000000E-002   -8.512705749656468E-030
 -3.850000000000000E-002   -7.345262251250637E-027
 -3.840000000000000E-002   -4.832544942822293E-026
 -3.830000000000000E-002   -2.150298269623388E-025
 -3.820000000000000E-002   -7.767180414340470E-025
 -3.810000000000000E-002   -2.426729913865916E-024
 -3.800000000000000E-002   -6.768774812123896E-024
 -3.790000000000000E-002   -1.717404247798131E-023
 -3.780000000000000E-002   -4.012275368883309E-023
 -3.770000000000000E-002   -8.701982479421069E-023
 -3.760000000000000E-002   -1.761579801072312E-022
 -3.750000000000000E-002   -3.338963115902455E-022
 -3.740000000000000E-002   -5.931576595845898E-022
 -3.730000000000000E-002   -9.860447201638041E-022
 -3.720000000000000E-002   -1.525930097377420E-021
 -3.710000000000000E-002   -2.173266807179474E-021
 -3.700000000000000E-002   -2.779422896249881E-021
 -3.690000000000000E-002   -3.005268677601570E-021
 -3.680000000000000E-002   -2.217470803270772E-021
 -3.670000000000000E-002    6.231316541569494E-022
 -3.660000000000000E-002    7.049324567583536E-021
 -3.650000000000000E-002    1.909698398320446E-020
 -3.640000000000000E-002    3.915639641455995E-020
 -3.630000000000000E-002    6.956363971277538E-020
 -3.620000000000000E-002    1.118210131788780E-019
 -3.610000000000000E-002    1.653516513426198E-019
 -3.600000000000000E-002    2.257496494448747E-019
 -3.590000000000000E-002    2.825965313130803E-019
 -3.580000000000000E-002    3.170860423375473E-019
 -3.570000000000000E-002    2.999292035761251E-019
 -3.560000000000000E-002    1.902794818752369E-019
 -3.550000000000000E-002   -6.331741372357482E-020
 -3.540000000000000E-002   -5.187530027417574E-019
 -3.530000000000000E-002   -1.231739848951098E-018
 -3.520000000000000E-002   -2.241765111996597E-018
 -3.510000000000000E-002   -3.552239639983611E-018
 -3.500000000000000E-002   -5.105529960179493E-018
 -3.490000000000000E-002   -6.755073385463430E-018
 -3.480000000000000E-002   -8.238683844660708E-018
 -3.470000000000000E-002   -9.159227408633379E-018
 -3.460000000000000E-002   -8.980750057791695E-018
 -3.450000000000000E-002   -7.049394413390246E-018
 -3.440000000000000E-002   -2.648434812746671E-018
 -3.430000000000000E-002    4.905077985460828E-018
 -3.420000000000000E-002    1.611881664104082E-017
 -3.410000000000000E-002    3.114247809589184E-017
 -3.400000000000000E-002    4.955700427431844E-017
 -3.390000000000000E-002    7.016025513698356E-017
 -3.380000000000000E-002    9.078564579836011E-017
 -3.370000000000000E-002    1.082009327270807E-016
 -3.360000000000000E-002    1.181409875546407E-016
 -3.350000000000000E-002    1.155284338925192E-016
 -3.340000000000000E-002    9.492622075932325E-017
 -3.330000000000000E-002    5.124491234675934E-017
 -3.320000000000000E-002   -1.930675338121907E-017
 -3.310000000000000E-002   -1.180849199777900E-016
 -3.300000000000000E-002   -2.427983171170033E-016
 -3.290000000000000E-002   -3.863870187864595E-016
 -3.280000000000000E-002   -5.362078801559237E-016
 -3.270000000000000E-002   -6.737732097129918E-016
 -3.260000000000000E-002   -7.752913672411523E-016
 -3.250000000000000E-002   -8.132193473236253E-016
 -3.240000000000000E-002   -7.589517525477430E-016
 -3.230000000000000E-002   -5.866350880924292E-016
 -3.220000000000000E-002   -2.779140649349991E-016
 -3.210000000000000E-002    1.727932158927447E-016
 -3.200000000000000E-002    7.531134649121662E-016
 -3.190000000000000E-002    1.428443360743361E-015
 -3.180000000000000E-002    2.139522099809881E-015
 -3.170000000000000E-002    2.802813076367027E-015
 -3.160000000000000E-002    3.314537143548496E-015
 -3.150000000000000E-002    3.558911576815334E-015
 -3.140000000000000E-002    3.420690670130504E-015
 -3.130000000000000E-002    2.801493255816144E-015
 -3.120000000000000E-002    1.638683997889870E-015
 -3.110000000000000E-002   -7.516437768300510E-017
 -3.100000000000000E-002   -2.274864278732919E-015
 -3.090000000000000E-002   -4.810355915806837E-015
 -3.080000000000000E-002   -7.442829292160379E-015
 -3.070000000000000E-002   -9.852144733891444E-015
 -3.060000000000000E-002   -1.165766182403211E-014
 -3.050000000000000E-002   -1.245323489789801E-014
 -3.040000000000000E-002   -1.185531753784218E-014
 -3.030000000000000E-002   -9.560983294203951E-015
 -3.020000000000000E-002   -5.410405997042262E-015
 -3.010000000000000E-002    5.536913508642372E-016
 -3.000000000000000E-002    8.038623021320116E-015
 -2.990000000000000E-002    1.647596946178096E-014
 -2.980000000000000E-002    2.502647294446649E-014
 -2.970000000000000E-002    3.262260164870482E-014
 -2.960000000000000E-002    3.805231877856898E-014
 -2.950000000000000E-002    4.008278635887646E-014
 -2.940000000000000E-002    3.761693478391923E-014
 -2.930000000000000E-002    2.986971665624102E-014
 -2.920000000000000E-002    1.654504245306536E-014
 -2.910000000000000E-002   -2.010072288496206E-015
 -2.900000000000000E-002   -2.469995720333551E-014
 -2.890000000000000E-002   -4.964846346427674E-014
 -2.880000000000000E-002   -7.426180619248269E-014
 -2.870000000000000E-002   -9.539899434136777E-014
 -2.860000000000000E-002   -1.096514300730306E-013
 -2.850000000000000E-002   -1.137190412790684E-013
 -2.840000000000000E-002   -1.048550599216689E-013
 -2.830000000000000E-002   -8.133639357032655E-014
 -2.820000000000000E-002   -4.290441460796239E-014
 -2.810000000000000E-002    8.886909047797904E-015
 -2.800000000000000E-002    7.047943700515829E-014
 -2.790000000000000E-002    1.363326412108094E-013
 -2.780000000000000E-002    1.991996141851208E-013
 -2.770000000000000E-002    2.506738074479895E-013
 -2.760000000000000E-002    2.819918954280103E-013
 -2.750000000000000E-002    2.850428923444466E-013
 -2.740000000000000E-002    2.534980622078874E-013
 -2.730000000000000E-002    1.839449012755613E-013
 -2.720000000000000E-002    7.688601434796229E-014
 -2.710000000000000E-002   -6.254510975147128E-014
 -2.700000000000000E-002   -2.242917608419302E-013
 -2.690000000000000E-002   -3.936184616680409E-013
 -2.680000000000000E-002   -5.519601254232890E-013
 -2.670000000000000E-002   -6.783825296412763E-013
 -2.660000000000000E-002   -7.515874499590362E-013
 -2.650000000000000E-002   -7.523194293585539E-013
 -2.640000000000000E-002   -6.659586650342276E-013
 -2.630000000000000E-002   -4.850274652676589E-013
 -2.620000000000000E-002   -2.113028580884984E-013
 -2.610000000000000E-002    1.427735840671468E-013
 -2.600000000000000E-002    5.536648351886000E-013
 -2.590000000000000E-002    9.874899031953012E-013
 -2.580000000000000E-002    1.402055393884154E-012
 -2.570000000000000E-002    1.750131452843279E-012
 -2.560000000000000E-002    1.983787154774478E-012
 -2.550000000000000E-002    2.059454232283100E-012
 -2.540000000000000E-002    1.943256468160348E-012
 -2.530000000000000E-002    1.616049593400541E-012
 -2.520000000000000E-002    1.077572957771874E-012
 -2.510000000000000E-002    3.491349759751945E-013
 -2.500000000000000E-002   -5.256568125771157E-013
 -2.490000000000000E-002   -1.482455526888410E-012
 -2.480000000000000E-002   -2.440145327789253E-012
 -2.470000000000000E-002   -3.307092109462721E-012
 -2.460000000000000E-002   -3.989278068065331E-012
 -2.450000000000000E-002   -4.399667240284985E-012
 -2.440000000000000E-002   -4.467942707309996E-012
 -2.430000000000000E-002   -4.149614208129477E-012
 -2.420000000000000E-002   -3.433454634314260E-012
 -2.410000000000000E-002   -2.346287617414898E-012
 -2.400000000000000E-002   -9.543308572647001E-013
 -2.390000000000000E-002    6.394163746681160E-013
 -2.380000000000000E-002    2.301883407777759E-012
 -2.370000000000000E-002    3.880456302963226E-012
 -2.360000000000000E-002    5.216612344327797E-012
 -2.350000000000000E-002    6.161551704441180E-012
 -2.340000000000000E-002    6.592399741382022E-012
 -2.330000000000000E-002    6.427358140736407E-012
 -2.320000000000000E-002    5.638134284826755E-012
 -2.310000000000000E-002    4.258109641530578E-012
 -2.300000000000000E-002    2.384997201998362E-012
 -2.290000000000000E-002    1.771858500180845E-013
 -2.280000000000000E-002   -2.156462602943540E-012
 -2.270000000000000E-002   -4.372962421804728E-012
 -2.260000000000000E-002   -6.216651658565031E-012
 -2.250000000000000E-002   -7.444092264440665E-012
 -2.240000000000000E-002   -7.850295231482785E-012
 -2.230000000000000E-002   -7.293822104980863E-012
 -2.220000000000000E-002   -5.718216883824514E-012
 -2.210000000000000E-002   -3.167340671417089E-012
 -2.200000000000000E-002    2.074564074493171E-013
 -2.190000000000000E-002    4.149805836227132E-012
 -2.180000000000000E-002    8.311160606021608E-012
 -2.170000000000000E-002    1.227384363668539E-011
 -2.160000000000000E-002    1.558319901254095E-011
 -2.150000000000000E-002    1.778683179060246E-011
 -2.140000000000000E-002    1.847808557754345E-011
 -2.130000000000000E-002    1.734027725452014E-011
 -2.120000000000000E-002    1.418777677214418E-011
 -2.110000000000000E-002    8.999925631673326E-012
 -2.100000000000000E-002    1.943971069646395E-012
 -2.090000000000000E-002   -6.616248504638368E-012
 -2.080000000000000E-002   -1.612827691622349E-011
 -2.070000000000000E-002   -2.587692563197054E-011
 -2.060000000000000E-002   -3.502790333624402E-011
 -2.050000000000000E-002   -4.268752058307394E-011
 -2.040000000000000E-002   -4.797518545660171E-011
 -2.030000000000000E-002   -5.010384175007172E-011
 -2.020000000000000E-002   -4.846228965262408E-011
 -2.010000000000000E-002   -4.269222736220904E-011
 -2.000000000000000E-002   -3.275246328295075E-011
 -1.990000000000000E-002   -1.896277924384817E-011
 -1.980000000000000E-002   -2.020756675235476E-012
 -1.970000000000000E-002    1.701364030317857E-011
 -1.960000000000000E-002    3.676870906162446E-011
 -1.950000000000000E-002    5.564703030432816E-011
 -1.940000000000000E-002    7.194366951624014E-011
 -1.930000000000000E-002    8.398993640645638E-011
 -1.920000000000000E-002    9.031256242340327E-011
 -1.910000000000000E-002    8.979522372567059E-011
 -1.900000000000000E-002    8.182711856612671E-011
 -1.890000000000000E-002    6.642241244514069E-011
 -1.880000000000000E-002    4.429475998944835E-011
 -1.870000000000000E-002    1.687332157963129E-011
 -1.860000000000000E-002   -1.374939427890543E-011
 -1.850000000000000E-002   -4.494203096009700E-011
 -1.840000000000000E-002   -7.372866635840864E-011
 -1.830000000000000E-002   -9.704276630796158E-011
 -1.820000000000000E-002   -1.120230475417897E-010
 -1.810000000000000E-002   -1.163266673196325E-010
 -1.800000000000000E-002   -1.084299518712301E-010
 -1.790000000000000E-002   -8.788389434086416E-011
 -1.780000000000000E-002   -5.549195926456247E-011
 -1.770000000000000E-002   -1.338144514842271E-011
 -1.760000000000000E-002    3.505296826041155E-011
 -1.750000000000000E-002    8.534423561009847E-011
 -1.740000000000000E-002    1.322839549497675E-010
 -1.730000000000000E-002    1.703719172898377E-010
 -1.720000000000000E-002    1.943519345927307E-010
 -1.710000000000000E-002    1.997882277197430E-010
 -1.700000000000000E-002    1.836265494994673E-010
 -1.690000000000000E-002    1.446787423220237E-010
 -1.680000000000000E-002    8.397019553094025E-011
 -1.670000000000000E-002    4.896751872589947E-012
 -1.660000000000000E-002   -8.684820331518958E-011
 -1.650000000000000E-002   -1.835958091553080E-010
 -1.640000000000000E-002   -2.762677698765379E-010
 -1.630000000000000E-002   -3.551542419168929E-010
 -1.620000000000000E-002   -4.108449913310475E-010
 -1.610000000000000E-002   -4.352319208486974E-010
 -1.600000000000000E-002   -4.224843800518317E-010
 -1.590000000000000E-002   -3.698905052854121E-010
 -1.580000000000000E-002   -2.784605941630901E-010
 -1.570000000000000E-002   -1.532030971879530E-010
 -1.560000000000000E-002   -3.009485104566279E-012
 -1.550000000000000E-002    1.598803162295259E-010
 -1.540000000000000E-002    3.208177721840727E-010
 -1.530000000000000E-002    4.640315544204659E-010
 -1.520000000000000E-002    5.741570332929702E-010
 -1.510000000000000E-002    6.378697039112094E-010
 -1.500000000000000E-002    6.454593607849806E-010
 -1.490000000000000E-002    5.921703220179277E-010
 -1.480000000000000E-002    4.791434010636397E-010
 -1.470000000000000E-002    3.138210744970364E-010
 -1.460000000000000E-002    1.097228681520133E-010
 -1.450000000000000E-002   -1.144429358886753E-010
 -1.440000000000000E-002   -3.362969961133146E-010
 -1.430000000000000E-002   -5.318306943232692E-010
 -1.420000000000000E-002   -6.778015733351605E-010
 -1.410000000000000E-002   -7.542576416977807E-010
 -1.400000000000000E-002   -7.469342029429003E-010
 -1.390000000000000E-002   -6.492567566347515E-010
 -1.380000000000000E-002   -4.637038468563849E-010
 -1.370000000000000E-002   -2.023316643383763E-010
 -1.360000000000000E-002    1.136650347907522E-010
 -1.350000000000000E-002    4.553884702608981E-010
 -1.340000000000000E-002    7.885989079618489E-010
 -1.330000000000000E-002    1.076826423969876E-009
 -1.320000000000000E-002    1.284965364530598E-009
 -1.310000000000000E-002    1.383010979658368E-009
 -1.300000000000000E-002    1.349558128991985E-009
 -1.290000000000000E-002    1.174677731316004E-009
 -1.280000000000000E-002    8.618251923104506E-010
 -1.270000000000000E-002    4.285117059854039E-010
 -1.260000000000000E-002   -9.441909387949791E-011
 -1.250000000000000E-002   -6.649303536555913E-010
 -1.240000000000000E-002   -1.233221981119804E-009
 -1.230000000000000E-002   -1.746181570937591E-009
 -1.220000000000000E-002   -2.152462860172292E-009
 -1.210000000000000E-002   -2.407705484853800E-009
 -1.200000000000000E-002   -2.479367626667056E-009
 -1.190000000000000E-002   -2.350647349812199E-009
 -1.180000000000000E-002   -2.023035104568292E-009
 -1.170000000000000E-002   -1.517153504299209E-009
 -1.160000000000000E-002   -8.717004251245355E-010
 -1.150000000000000E-002   -1.404981812686337E-010
 -1.140000000000000E-002    6.121515505910904E-010
 -1.130000000000000E-002    1.317418500262486E-009
 -1.120000000000000E-002    1.908656466139519E-009
 -1.110000000000000E-002    2.328225122922005E-009
 -1.100000000000000E-002    2.533721381586066E-009
 -1.090000000000000E-002    2.502949336202063E-009
 -1.080000000000000E-002    2.237051666047895E-009
 -1.070000000000000E-002    1.761387125395065E-009
 -1.060000000000000E-002    1.123955360954958E-009
 -1.050000000000000E-002    3.914106261630831E-010
 -1.040000000000000E-002   -3.570400250397682E-010
 -1.030000000000000E-002   -1.037327071824265E-009
 -1.020000000000000E-002   -1.569079739762325E-009
 -1.010000000000000E-002   -1.884220968125566E-009
 -1.000000000000000E-002   -1.934712043955284E-009
 -9.899999999999999E-003   -1.698614715586796E-009
 -9.800000000000000E-003   -1.183770149211354E-009
 -9.699999999999999E-003   -4.286091220737675E-010
 -9.599999999999999E-003    5.001225424158398E-010
 -9.500000000000000E-003    1.512634720685455E-009
 -9.399999999999999E-003    2.503961444275102E-009
 -9.299999999999999E-003    3.363752769253668E-009
 -9.200000000000000E-003    3.987091002529326E-009
 -9.099999999999999E-003    4.285294458601774E-009
 -8.999999999999999E-003    4.195632472399203E-009
 -8.900000000000000E-003    3.688940148732720E-009
 -8.799999999999999E-003    2.774294570104163E-009
 -8.699999999999999E-003    1.500173613456904E-009
 -8.600000000000000E-003   -4.815609988438452E-011
 -8.499999999999999E-003   -1.754911053031950E-009
 -8.399999999999999E-003   -3.483247642863918E-009
 -8.300000000000000E-003   -5.087103659390727E-009
 -8.199999999999999E-003   -6.424362287933412E-009
 -8.100000000000000E-003   -7.370114145475714E-009
 -8.000000000000000E-003   -7.828748971875012E-009
 -7.899999999999999E-003   -7.743679699991371E-009
 -7.800000000000000E-003   -7.103693461896661E-009
 -7.699999999999999E-003   -5.945229194736145E-009
 -7.599999999999999E-003   -4.350243498099455E-009
 -7.499999999999999E-003   -2.439746945723332E-009
 -7.399999999999999E-003   -3.635083712012297E-010
 -7.299999999999999E-003    1.713193509761335E-009
 -7.199999999999999E-003    3.624591491684470E-009
 -7.100000000000000E-003    5.219837278618656E-009
 -6.999999999999999E-003    6.377340882681926E-009
 -6.899999999999999E-003    7.016646393379421E-009
 -6.800000000000000E-003    7.106651255446247E-009
 -6.699999999999999E-003    6.669283765573125E-009
 -6.599999999999999E-003    5.778162566378807E-009
 -6.499999999999999E-003    4.552224702796637E-009
 -6.399999999999999E-003    3.144778155364914E-009
 -6.299999999999999E-003    1.728881526764560E-009
 -6.199999999999999E-003    4.803226344207320E-010
 -6.100000000000000E-003   -4.402646584930624E-010
 -5.999999999999999E-003   -9.044818439793687E-010
 -5.899999999999999E-003   -8.307970802848854E-010
 -5.800000000000000E-003   -1.952504735749286E-010
 -5.699999999999999E-003    9.629287396743041E-010
 -5.599999999999999E-003    2.541539688025518E-009
 -5.499999999999999E-003    4.381693288408414E-009
 -5.399999999999999E-003    6.279866653585048E-009
 -5.299999999999999E-003    8.004893082355611E-009
 -5.199999999999999E-003    9.318600345945548E-009
 -5.099999999999999E-003    9.998430596392948E-009
 -4.999999999999999E-003    9.860158932675083E-009
 -4.899999999999999E-003    8.778764494972522E-009
 -4.799999999999999E-003    6.705614995066248E-009
 -4.699999999999999E-003    3.680406607100880E-009
 -4.599999999999999E-003   -1.632692866837456E-010
 -4.499999999999999E-003   -4.599322624007484E-009
 -4.399999999999999E-003   -9.317497799444181E-009
 -4.299999999999999E-003   -1.393798950497323E-008
 -4.199999999999999E-003   -1.803109382147735E-008
 -4.099999999999999E-003   -2.114016609793207E-008
 -3.999999999999999E-003   -2.280578639172282E-008
 -3.899999999999999E-003   -2.258887915635566E-008
 -3.799999999999999E-003   -2.009056471979239E-008
 -3.699999999999999E-003   -1.496675978778399E-008
 -3.599999999999999E-003   -6.935981952870221E-009
 -3.499999999999999E-003    4.220584404046453E-009
 -3.399999999999999E-003    1.866698214010171E-008
 -3.299999999999999E-003    3.652784117809103E-008
 -3.199999999999999E-003    5.790986574776309E-008
 -3.099999999999999E-003    8.292756162465301E-008
 -2.999999999999999E-003    1.117308470977000E-007
 -2.899999999999999E-003    1.445317096935085E-007
 -2.799999999999999E-003    1.816272929494962E-007
 -2.699999999999999E-003    2.234168767717056E-007
 -2.599999999999999E-003    2.704107768988478E-007
 -2.499999999999999E-003    3.232297178627524E-007
 -2.399999999999999E-003    3.825944981026047E-007
 -2.299999999999999E-003    4.493064017569518E-007
 -2.199999999999999E-003    5.242195521360551E-007
 -2.099999999999999E-003    6.082081577644125E-007
 -1.999999999999999E-003    7.021309803244676E-007
 -1.899999999999999E-003    8.067971258672033E-007
 -1.799999999999999E-003    9.229360351131719E-007
 -1.699999999999999E-003    1.051175478380712E-006
 -1.599999999999999E-003    1.192030017891135E-006
 -1.499999999999999E-003    1.345901594337536E-006
 -1.399999999999999E-003    1.513093377500675E-006
 -1.299999999999999E-003    1.693836212310388E-006
 -1.199999999999999E-003    1.888325368119335E-006
 -1.099999999999999E-003    2.096766305516995E-006
 -9.999999999999989E-004    2.319423725793437E-006
 -8.999999999999990E-004    2.556671029364888E-006
 -7.999999999999990E-004    2.809035991973928E-006
 -6.999999999999989E-004    3.077236872937783E-006
 -5.999999999999990E-004    3.362207002842944E-006
 -4.999999999999989E-004    3.665104817041784E-006
 -3.999999999999989E-004    3.987307620144260E-006
 -2.999999999999989E-004    4.330391454322104E-006
 -1.999999999999989E-004    4.696095753110497E-006
 -9.999999999999892E-005    5.086278690019683E-006
  1.084202172485504E-018    5.502866242417310E-006
  1.000000000000011E-004    5.947801455135829E-006
  2.000000000000011E-004    6.422996563773140E-006
  3.000000000000011E-004    6.930295406454727E-006
  4.000000000000011E-004    7.471448408735012E-006
  5.000000000000011E-004    8.048106582046198E-006
  6.000000000000011E-004    8.661831031293345E-006
  7.000000000000011E-004    9.314123015139480E-006
  8.000000000000011E-004    1.000646585073001E-005
  9.000000000000012E-004    1.074038558604306E-005
  1.000000000000001E-003    1.151751208145820E-005
  1.100000000000001E-003    1.233964949478953E-005
  1.200000000000001E-003    1.320883557538354E-005
  1.300000000000001E-003    1.412739887147738E-005
  1.400000000000001E-003    1.509799476507183E-005
  1.500000000000001E-003    1.612362739229497E-005
  1.600000000000001E-003    1.720765477921466E-005
  1.700000000000001E-003    1.835376964767889E-005
  1.800000000000001E-003    1.956596444735956E-005
  1.900000000000001E-003    2.084848538772507E-005
  2.000000000000001E-003    2.220577913205728E-005
  2.100000000000001E-003    2.364243457114452E-005
  2.200000000000001E-003    2.516313004705562E-005
  2.300000000000001E-003    2.677259632872592E-005
  2.400000000000001E-003    2.847558383091012E-005
  2.500000000000001E-003    3.027686361402427E-005
  2.600000000000001E-003    3.218124143687805E-005
  2.700000000000001E-003    3.419359070168854E-005
  2.800000000000001E-003    3.631891648447487E-005
  2.900000000000001E-003    3.856242218304731E-005
  3.000000000000001E-003    4.092958868694622E-005
  3.100000000000001E-003    4.342626057589676E-005
  3.200000000000001E-003    4.605872241629602E-005
  3.300000000000001E-003    4.883377869923347E-005
  3.400000000000001E-003    5.175879791204166E-005
  3.500000000000001E-003    5.484174290659290E-005
  3.600000000000001E-003    5.809119767467960E-005
  3.700000000000001E-003    6.151634074435105E-005
  3.800000000000001E-003    6.512692449949021E-005
  3.900000000000001E-003    6.893322967644433E-005
  4.000000000000001E-003    7.294601053870897E-005
  4.100000000000001E-003    7.717641990493826E-005
  4.200000000000001E-003    8.163596608086858E-005
  4.300000000000001E-003    8.633646204336817E-005
  4.400000000000001E-003    9.128999605350378E-005
  4.500000000000001E-003    9.650891994885283E-005
  4.600000000000002E-003    1.020058745247779E-004
  4.700000000000001E-003    1.077938178017297E-004
  4.800000000000001E-003    1.138860820754215E-004
  4.900000000000002E-003    1.202964530776626E-004
  5.000000000000001E-003    1.270392843740985E-004
  5.100000000000001E-003    1.341295866245675E-004
  5.200000000000001E-003    1.415831214163351E-004
  5.300000000000002E-003    1.494165309792836E-004
  5.400000000000001E-003    1.576473882815062E-004
  5.500000000000001E-003    1.662942732322775E-004
  5.600000000000002E-003    1.753768244752741E-004
  5.700000000000001E-003    1.849157636894380E-004
  5.800000000000001E-003    1.949328931192035E-004
  5.900000000000002E-003    2.054510913301030E-004
  6.000000000000001E-003    2.164942040224257E-004
  6.100000000000001E-003    2.280871075819921E-004
  6.200000000000002E-003    2.402556099308261E-004
  6.300000000000002E-003    2.530263540050709E-004
  6.400000000000001E-003    2.664268975459273E-004
  6.500000000000001E-003    2.804855894255263E-004
  6.600000000000002E-003    2.952316513544456E-004
  6.700000000000001E-003    3.106951396040202E-004
  6.800000000000001E-003    3.269070440742092E-004
  6.900000000000002E-003    3.438993426384336E-004
  7.000000000000001E-003    3.617051283732092E-004
  7.100000000000001E-003    3.803586304964684E-004
  7.200000000000002E-003    3.998954410698763E-004
  7.300000000000002E-003    4.203524683364956E-004
  7.400000000000001E-003    4.417682353802696E-004
  7.500000000000001E-003    4.641828385926891E-004
  7.600000000000002E-003    4.876380760179332E-004
  7.700000000000001E-003    5.121774969239028E-004
  7.800000000000001E-003    5.378464241054508E-004
  7.900000000000001E-003    5.646919686412571E-004
  8.000000000000002E-003    5.927629508380208E-004
  8.100000000000001E-003    6.221100991262382E-004
  8.200000000000001E-003    6.527857537696832E-004
  8.300000000000002E-003    6.848439559889385E-004
  8.400000000000001E-003    7.183404604378392E-004
  8.500000000000002E-003    7.533326463334600E-004
  8.600000000000002E-003    7.898795638722967E-004
  8.700000000000001E-003    8.280419631287426E-004
  8.800000000000002E-003    8.678822660686544E-004
  8.900000000000002E-003    9.094647174638105E-004
  9.000000000000001E-003    9.528554408828726E-004
  9.100000000000002E-003    9.981226085154411E-004
  9.200000000000002E-003    1.045336518579515E-003
  9.300000000000001E-003    1.094569721031633E-003
  9.400000000000002E-003    1.145897090140552E-003
  9.500000000000001E-003    1.199395930349925E-003
  9.600000000000001E-003    1.255146227758807E-003
  9.700000000000002E-003    1.313230529442688E-003
  9.800000000000001E-003    1.373733957503635E-003
  9.900000000000001E-003    1.436744408125091E-003
  1.000000000000000E-002    1.502352427434876E-003
  1.010000000000000E-002    1.570651179340027E-003
  1.020000000000000E-002    1.641736353420861E-003
  1.030000000000000E-002    1.715706342801163E-003
  1.040000000000000E-002    1.792661963151730E-003
  1.050000000000000E-002    1.872706379046800E-003
  1.060000000000000E-002    1.955945372487588E-003
  1.070000000000000E-002    2.042487204597180E-003
  1.080000000000000E-002    2.132442376072038E-003
  1.090000000000000E-002    2.225924082325035E-003
  1.100000000000000E-002    2.323047961053226E-003
  1.110000000000000E-002    2.423932679417646E-003
  1.120000000000000E-002    2.528699383769530E-003
  1.130000000000000E-002    2.637472161476002E-003
  1.140000000000000E-002    2.750378198649325E-003
  1.150000000000000E-002    2.867547714974922E-003
  1.160000000000000E-002    2.989114128513051E-003
  1.170000000000000E-002    3.115214003493122E-003
  1.180000000000000E-002    3.245987325115034E-003
  1.190000000000000E-002    3.381576816310643E-003
  1.200000000000000E-002    3.522128704442400E-003
  1.210000000000000E-002    3.667792075113193E-003
  1.220000000000000E-002    3.818719121532752E-003
  1.230000000000000E-002    3.975064484065689E-003
  1.240000000000000E-002    4.136986172959187E-003
  1.250000000000000E-002    4.304644843919307E-003
  1.260000000000000E-002    4.478203472942883E-003
  1.270000000000000E-002    4.657827900074098E-003
  1.280000000000000E-002    4.843686284559667E-003
  1.290000000000000E-002    5.035949305074047E-003
  1.300000000000000E-002    5.234790325467722E-003
  1.310000000000000E-002    5.440384889188530E-003
  1.320000000000000E-002    5.652911093699016E-003
  1.330000000000000E-002    5.872550012759159E-003
  1.340000000000000E-002    6.099485065070518E-003
  1.350000000000000E-002    6.333902004367876E-003
  1.360000000000000E-002    6.575988676435769E-003
  1.370000000000000E-002    6.825936457385784E-003
  1.380000000000000E-002    7.083938709775539E-003
  1.390000000000000E-002    7.350190689681074E-003
  1.400000000000000E-002    7.624889671645588E-003
  1.410000000000000E-002    7.908234779708680E-003
  1.420000000000000E-002    8.200427716448523E-003
  1.430000000000000E-002    8.501670690399041E-003
  1.440000000000000E-002    8.812167639155885E-003
  1.450000000000000E-002    9.132123080159151E-003
  1.460000000000000E-002    9.461743647608893E-003
  1.470000000000000E-002    9.801235431285128E-003
  1.480000000000000E-002    1.015080634578185E-002
  1.490000000000000E-002    1.051066383457014E-002
  1.500000000000000E-002    1.088101605708439E-002
  1.510000000000000E-002    1.126207120696354E-002
  1.520000000000000E-002    1.165403707374762E-002
  1.530000000000000E-002    1.205712200016086E-002
  1.540000000000000E-002    1.247153381849058E-002
  1.550000000000000E-002    1.289747917774264E-002
  1.560000000000000E-002    1.333516402517850E-002
  1.570000000000000E-002    1.378479433917700E-002
  1.580000000000000E-002    1.424657296780554E-002
  1.590000000000000E-002    1.472070486006118E-002
  1.600000000000000E-002    1.520739000659413E-002
  1.610000000000000E-002    1.570682658033421E-002
  1.620000000000000E-002    1.621920972531511E-002
  1.630000000000000E-002    1.674473482229864E-002
  1.640000000000000E-002    1.728359167228226E-002
  1.650000000000000E-002    1.783596574825202E-002
  1.660000000000000E-002    1.840204147199191E-002
  1.670000000000000E-002    1.898199651935675E-002
  1.680000000000000E-002    1.957600608581341E-002
  1.690000000000000E-002    2.018423695366551E-002
  1.700000000000000E-002    2.080685385619398E-002
  1.710000000000000E-002    2.144401540760295E-002
  1.720000000000000E-002    2.209587247470694E-002
  1.730000000000000E-002    2.276256928835906E-002
  1.740000000000000E-002    2.344424568693145E-002
  1.750000000000000E-002    2.414103155624277E-002
  1.760000000000000E-002    2.485305163982910E-002
  1.770000000000000E-002    2.558042034591581E-002
  1.780000000000000E-002    2.632324431805734E-002
  1.790000000000000E-002    2.708162318341473E-002
  1.800000000000000E-002    2.785564722468113E-002
  1.810000000000000E-002    2.864539086313738E-002
  1.820000000000000E-002    2.945092738013397E-002
  1.830000000000000E-002    3.027231243975721E-002
  1.840000000000000E-002    3.110959309830391E-002
  1.850000000000000E-002    3.196280433986611E-002
  1.860000000000000E-002    3.283196537070059E-002
  1.870000000000000E-002    3.371709050898120E-002