 -4.000000000000000E-002    0.000000000000000E+000
 -3.990000000000000E-002    0.000000000000000E+000
 -3.980000000000000E-002    0.000000000000000E+000
 -3.970000000000000E-002    0.000000000000000E+000
 -3.960000000000000E-002    0.000000000000000E+000
 -3.950000000000000E-002    0.000000000000000E+000
 -3.940000000000000E-002    0.000000000000000E+000
 -3.930000000000000E-002    0.000000000000000E+000
 -3.920000000000000E-002    0.000000000000000E+000
 -3.910000000000000E-002    0.000000000000000E+000
 -3.900000000000000E-002    0.000000000000000E+000
 -3.890000000000000E-002    0.000000000000000E+000
 -3.880000000000000E-002    0.000000000000000E+000
 -3.870000000000000E-002    0.000000000000000E+000
 -3.860000000000000E-002    0.000000000000000E+000
 -3.850000000000000E-002    0.000000000000000E+000
 -3.840000000000000E-002    0.000000000000000E+000
 -3.830000000000000E-002    0.000000000000000E+000
 -3.820000000000000E-002    0.000000000000000E+000
 -3.810000000000000E-002    0.000000000000000E+000
 -3.800000000000000E-002    0.000000000000000E+000
 -3.790000000000000E-002    0.000000000000000E+000
 -3.780000000000000E-002    0.000000000000000E+000
 -3.770000000000000E-002    0.000000000000000E+000
 -3.760000000000000E-002    0.000000000000000E+000
 -3.750000000000000E-002    0.000000000000000E+000
 -3.740000000000000E-002    0.000000000000000E+000
 -3.730000000000000E-002    0.000000000000000E+000
 -3.720000000000000E-002    0.000000000000000E+000
 -3.710000000000000E-002    0.000000000000000E+000
 -3.700000000000000E-002    0.000000000000000E+000
 -3.690000000000000E-002    0.000000000000000E+000
 -3.680000000000000E-002    0.000000000000000E+000
 -3.670000000000000E-002    0.000000000000000E+000
 -3.660000000000000E-002    0.000000000000000E+000
 -3.650000000000000E-002    0.000000000000000E+000
 -3.640000000000000E-002    0.000000000000000E+000
 -3.630000000000000E-002    0.000000000000000E+000
 -3.620000000000000E-002    0.000000000000000E+000
 -3.610000000000000E-002    0.000000000000000E+000
 -3.600000000000000E-002    0.000000000000000E+000
 -3.590000000000000E-002    0.000000000000000E+000
 -3.580000000000000E-002    0.000000000000000E+000
 -3.570000000000000E-002    0.000000000000000E+000
 -3.560000000000000E-002    0.000000000000000E+000
 -3.550000000000000E-002    0.000000000000000E+000
 -3.540000000000000E-002    0.000000000000000E+000
 -3.530000000000000E-002    0.000000000000000E+000
 -3.520000000000000E-002    0.000000000000000E+000
 -3.510000000000000E-002    0.000000000000000E+000
 -3.500000000000000E-002    0.000000000000000E+000
 -3.490000000000000E-002    0.000000000000000E+000
 -3.480000000000000E-002    0.000000000000000E+000
 -3.470000000000000E-002    0.000000000000000E+000
 -3.460000000000000E-002    0.000000000000000E+000
 -3.450000000000000E-002    0.000000000000000E+000
 -3.440000000000000E-002    0.000000000000000E+000
 -3.430000000000000E-002    0.000000000000000E+000
 -3.420000000000000E-002    0.000000000000000E+000
 -3.410000000000000E-002    0.000000000000000E+000
 -3.400000000000000E-002    0.000000000000000E+000
 -3.390000000000000E-002    0.000000000000000E+000
 -3.380000000000000E-002    0.000000000000000E+000
 -3.370000000000000E-002    0.000000000000000E+000
 -3.360000000000000E-002    0.000000000000000E+000
 -3.350000000000000E-002    0.000000000000000E+000
 -3.340000000000000E-002    0.000000000000000E+000
 -3.330000000000000E-002    0.000000000000000E+000
 -3.320000000000000E-002    0.000000000000000E+000
 -3.310000000000000E-002    0.000000000000000E+000
 -3.300000000000000E-002    0.000000000000000E+000
 -3.290000000000000E-002    0.000000000000000E+000
 -3.280000000000000E-002    0.000000000000000E+000
 -3.270000000000000E-002    0.000000000000000E+000
 -3.260000000000000E-002    0.000000000000000E+000
 -3.250000000000000E-002    0.000000000000000E+000
 -3.240000000000000E-002    0.000000000000000E+000
 -3.230000000000000E-002    0.000000000000000E+000
 -3.220000000000000E-002    0.000000000000000E+000
 -3.210000000000000E-002    0.000000000000000E+000
 -3.200000000000000E-002    0.000000000000000E+000
 -3.190000000000000E-002    0.000000000000000E+000
 -3.180000000000000E-002    0.000000000000000E+000
 -3.170000000000000E-002    0.000000000000000E+000
 -3.160000000000000E-002    0.000000000000000E+000
 -3.150000000000000E-002    0.000000000000000E+000
 -3.140000000000000E-002    0.000000000000000E+000
 -3.130000000000000E-002    0.000000000000000E+000
 -3.120000000000000E-002    0.000000000000000E+000
 -3.110000000000000E-002    0.000000000000000E+000
 -3.100000000000000E-002    0.000000000000000E+000
 -3.090000000000000E-002    0.000000000000000E+000
 -3.080000000000000E-002    0.000000000000000E+000
 -3.070000000000000E-002    0.000000000000000E+000
 -3.060000000000000E-002    0.000000000000000E+000
 -3.050000000000000E-002    0.000000000000000E+000
 -3.040000000000000E-002    0.000000000000000E+000
 -3.030000000000000E-002    0.000000000000000E+000
 -3.020000000000000E-002    0.000000000000000E+000
 -3.010000000000000E-002    0.000000000000000E+000
 -3.000000000000000E-002    0.000000000000000E+000
 -2.990000000000000E-002    0.000000000000000E+000
 -2.980000000000000E-002    0.000000000000000E+000
 -2.970000000000000E-002    0.000000000000000E+000
 -2.960000000000000E-002    0.000000000000000E+000
 -2.950000000000000E-002    0.000000000000000E+000
 -2.940000000000000E-002    0.000000000000000E+000
 -2.930000000000000E-002    0.000000000000000E+000
 -2.920000000000000E-002    0.000000000000000E+000
 -2.910000000000000E-002    0.000000000000000E+000
 -2.900000000000000E-002    0.000000000000000E+000
 -2.890000000000000E-002    0.000000000000000E+000
 -2.880000000000000E-002    0.000000000000000E+000
 -2.870000000000000E-002    0.000000000000000E+000
 -2.860000000000000E-002    0.000000000000000E+000
 -2.850000000000000E-002    0.000000000000000E+000
 -2.840000000000000E-002    0.000000000000000E+000
 -2.830000000000000E-002    0.000000000000000E+000
 -2.820000000000000E-002    0.000000000000000E+000
 -2.810000000000000E-002    0.000000000000000E+000
 -2.800000000000000E-002    0.000000000000000E+000
 -2.790000000000000E-002    0.000000000000000E+000
 -2.780000000000000E-002    0.000000000000000E+000
 -2.770000000000000E-002    0.000000000000000E+000
 -2.760000000000000E-002    0.000000000000000E+000
 -2.750000000000000E-002    0.000000000000000E+000
 -2.740000000000000E-002    0.000000000000000E+000
 -2.730000000000000E-002    0.000000000000000E+000
 -2.720000000000000E-002    0.000000000000000E+000
 -2.710000000000000E-002    0.000000000000000E+000
 -2.700000000000000E-002    0.000000000000000E+000
 -2.690000000000000E-002    0.000000000000000E+000
 -2.680000000000000E-002    0.000000000000000E+000
 -2.670000000000000E-002    0.000000000000000E+000
 -2.660000000000000E-002    0.000000000000000E+000
 -2.650000000000000E-002    0.000000000000000E+000
 -2.640000000000000E-002    0.000000000000000E+000
 -2.630000000000000E-002    0.000000000000000E+000
 -2.620000000000000E-002    0.000000000000000E+000
 -2.610000000000000E-002    0.000000000000000E+000
 -2.600000000000000E-002    0.000000000000000E+000
 -2.590000000000000E-002    0.000000000000000E+000
 -2.580000000000000E-002    0.000000000000000E+000
 -2.570000000000000E-002    0.000000000000000E+000
 -2.560000000000000E-002    0.000000000000000E+000
 -2.550000000000000E-002    0.000000000000000E+000
 -2.540000000000000E-002    0.000000000000000E+000
 -2.530000000000000E-002    0.000000000000000E+000
 -2.520000000000000E-002    0.000000000000000E+000
 -2.510000000000000E-002    0.000000000000000E+000
 -2.500000000000000E-002    0.000000000000000E+000
 -2.490000000000000E-002    0.000000000000000E+000
 -2.480000000000000E-002    0.000000000000000E+000
 -2.470000000000000E-002    0.000000000000000E+000
 -2.460000000000000E-002    0.000000000000000E+000
 -2.450000000000000E-002    0.000000000000000E+000
 -2.440000000000000E-002    0.000000000000000E+000
 -2.430000000000000E-002    0.000000000000000E+000
 -2.420000000000000E-002    0.000000000000000E+000
 -2.410000000000000E-002    0.000000000000000E+000
 -2.400000000000000E-002    0.000000000000000E+000
 -2.390000000000000E-002    0.000000000000000E+000
 -2.380000000000000E-002    0.000000000000000E+000
 -2.370000000000000E-002    0.000000000000000E+000
 -2.360000000000000E-002    0.000000000000000E+000
 -2.350000000000000E-002    0.000000000000000E+000
 -2.340000000000000E-002    0.000000000000000E+000
 -2.330000000000000E-002    0.000000000000000E+000
 -2.320000000000000E-002    0.000000000000000E+000
 -2.310000000000000E-002    0.000000000000000E+000
 -2.300000000000000E-002    0.000000000000000E+000
 -2.290000000000000E-002    0.000000000000000E+000
 -2.280000000000000E-002    0.000000000000000E+000
 -2.270000000000000E-002    0.000000000000000E+000
 -2.260000000000000E-002    0.000000000000000E+000
 -2.250000000000000E-002    0.000000000000000E+000
 -2.240000000000000E-002    0.000000000000000E+000
 -2.230000000000000E-002    0.000000000000000E+000
 -2.220000000000000E-002    0.000000000000000E+000
 -2.210000000000000E-002    0.000000000000000E+000
 -2.200000000000000E-002    0.000000000000000E+000
 -2.190000000000000E-002    0.000000000000000E+000
 -2.180000000000000E-002    0.000000000000000E+000
 -2.170000000000000E-002    0.000000000000000E+000
 -2.160000000000000E-002    0.000000000000000E+000
 -2.150000000000000E-002    0.000000000000000E+000
 -2.140000000000000E-002    0.000000000000000E+000
 -2.130000000000000E-002    0.000000000000000E+000
 -2.120000000000000E-002    0.000000000000000E+000
 -2.110000000000000E-002    0.000000000000000E+000
 -2.100000000000000E-002    0.000000000000000E+000
 -2.090000000000000E-002    0.000000000000000E+000
 -2.080000000000000E-002    0.000000000000000E+000
 -2.070000000000000E-002    0.000000000000000E+000
 -2.060000000000000E-002    0.000000000000000E+000
 -2.050000000000000E-002    0.000000000000000E+000
 -2.040000000000000E-002    0.000000000000000E+000
 -2.030000000000000E-002    0.000000000000000E+000
 -2.020000000000000E-002    0.000000000000000E+000
 -2.010000000000000E-002    0.000000000000000E+000
 -2.000000000000000E-002    0.000000000000000E+000
 -1.990000000000000E-002    0.000000000000000E+000
 -1.980000000000000E-002    0.000000000000000E+000
 -1.970000000000000E-002    0.000000000000000E+000
 -1.960000000000000E-002    0.000000000000000E+000
 -1.950000000000000E-002    0.000000000000000E+000
 -1.940000000000000E-002    0.000000000000000E+000
 -1.930000000000000E-002    0.000000000000000E+000
 -1.920000000000000E-002    0.000000000000000E+000
 -1.910000000000000E-002    0.000000000000000E+000
 -1.900000000000000E-002    0.000000000000000E+000
 -1.890000000000000E-002    0.000000000000000E+000
 -1.880000000000000E-002    0.000000000000000E+000
 -1.870000000000000E-002    0.000000000000000E+000
 -1.860000000000000E-002    0.000000000000000E+000
 -1.850000000000000E-002    0.000000000000000E+000
 -1.840000000000000E-002    0.000000000000000E+000
 -1.830000000000000E-002    0.000000000000000E+000
 -1.820000000000000E-002    0.000000000000000E+000
 -1.810000000000000E-002    0.000000000000000E+000
 -1.800000000000000E-002    0.000000000000000E+000
 -1.790000000000000E-002    0.000000000000000E+000
 -1.780000000000000E-002    0.000000000000000E+000
 -1.770000000000000E-002    0.000000000000000E+000
 -1.760000000000000E-002    0.000000000000000E+000
 -1.750000000000000E-002    0.000000000000000E+000
 -1.740000000000000E-002    0.000000000000000E+000
 -1.730000000000000E-002    0.000000000000000E+000
 -1.720000000000000E-002    0.000000000000000E+000
 -1.710000000000000E-002    0.000000000000000E+000
 -1.700000000000000E-002    0.000000000000000E+000
 -1.690000000000000E-002    0.000000000000000E+000
 -1.680000000000000E-002    0.000000000000000E+000
 -1.670000000000000E-002    0.000000000000000E+000
 -1.660000000000000E-002    0.000000000000000E+000
 -1.650000000000000E-002    0.000000000000000E+000
 -1.640000000000000E-002    0.000000000000000E+000
 -1.630000000000000E-002    0.000000000000000E+000
 -1.620000000000000E-002    0.000000000000000E+000
 -1.610000000000000E-002    0.000000000000000E+000
 -1.600000000000000E-002    0.000000000000000E+000
 -1.590000000000000E-002    0.000000000000000E+000
 -1.580000000000000E-002    0.000000000000000E+000
 -1.570000000000000E-002    0.000000000000000E+000
 -1.560000000000000E-002    0.000000000000000E+000
 -1.550000000000000E-002    0.000000000000000E+000
 -1.540000000000000E-002    0.000000000000000E+000
 -1.530000000000000E-002    0.000000000000000E+000
 -1.520000000000000E-002    0.000000000000000E+000
 -1.510000000000000E-002    0.000000000000000E+000
 -1.500000000000000E-002    0.000000000000000E+000
 -1.490000000000000E-002    0.000000000000000E+000
 -1.480000000000000E-002    0.000000000000000E+000
 -1.470000000000000E-002    0.000000000000000E+000
 -1.460000000000000E-002    0.000000000000000E+000
 -1.450000000000000E-002    0.000000000000000E+000
 -1.440000000000000E-002    0.000000000000000E+000
 -1.430000000000000E-002    0.000000000000000E+000
 -1.420000000000000E-002    0.000000000000000E+000
 -1.410000000000000E-002    0.000000000000000E+000
 -1.400000000000000E-002    0.000000000000000E+000
 -1.390000000000000E-002    0.000000000000000E+000
 -1.380000000000000E-002    0.000000000000000E+000
 -1.370000000000000E-002    0.000000000000000E+000
 -1.360000000000000E-002    0.000000000000000E+000
 -1.350000000000000E-002    0.000000000000000E+000
 -1.340000000000000E-002    0.000000000000000E+000
 -1.330000000000000E-002    0.000000000000000E+000
 -1.320000000000000E-002    0.000000000000000E+000
 -1.310000000000000E-002    0.000000000000000E+000
 -1.300000000000000E-002    0.000000000000000E+000
 -1.290000000000000E-002    0.000000000000000E+000
 -1.280000000000000E-002    0.000000000000000E+000
 -1.270000000000000E-002    0.000000000000000E+000
 -1.260000000000000E-002    0.000000000000000E+000
 -1.250000000000000E-002    0.000000000000000E+000
 -1.240000000000000E-002    0.000000000000000E+000
 -1.230000000000000E-002    0.000000000000000E+000
 -1.220000000000000E-002    0.000000000000000E+000
 -1.210000000000000E-002    0.000000000000000E+000
 -1.200000000000000E-002    0.000000000000000E+000
 -1.190000000000000E-002    0.000000000000000E+000
 -1.180000000000000E-002    0.000000000000000E+000
 -1.170000000000000E-002    0.000000000000000E+000
 -1.160000000000000E-002    0.000000000000000E+000
 -1.150000000000000E-002    0.000000000000000E+000
 -1.140000000000000E-002    0.000000000000000E+000
 -1.130000000000000E-002    0.000000000000000E+000
 -1.120000000000000E-002    0.000000000000000E+000
 -1.110000000000000E-002    0.000000000000000E+000
 -1.100000000000000E-002    0.000000000000000E+000
 -1.090000000000000E-002    0.000000000000000E+000
 -1.080000000000000E-002    0.000000000000000E+000
 -1.070000000000000E-002    0.000000000000000E+000
 -1.060000000000000E-002    0.000000000000000E+000
 -1.050000000000000E-002    0.000000000000000E+000
 -1.040000000000000E-002    0.000000000000000E+000
 -1.030000000000000E-002    0.000000000000000E+000
 -1.020000000000000E-002    0.000000000000000E+000
 -1.010000000000000E-002    0.000000000000000E+000
 -1.000000000000000E-002    0.000000000000000E+000
 -9.899999999999999E-003    0.000000000000000E+000
 -9.800000000000000E-003    0.000000000000000E+000
 -9.699999999999999E-003    0.000000000000000E+000
 -9.599999999999999E-003    0.000000000000000E+000
 -9.500000000000000E-003    0.000000000000000E+000
 -9.399999999999999E-003    0.000000000000000E+000
 -9.299999999999999E-003    0.000000000000000E+000
 -9.200000000000000E-003    0.000000000000000E+000
 -9.099999999999999E-003    0.000000000000000E+000
 -8.999999999999999E-003    0.000000000000000E+000
 -8.900000000000000E-003    0.000000000000000E+000
 -8.799999999999999E-003    6.414635304221270E-048
 -8.699999999999999E-003    1.282927060844254E-047
 -8.600000000000000E-003    1.924390591266381E-047
 -8.499999999999999E-003    1.924390591266381E-047
 -8.399999999999999E-003    1.924390591266381E-047
 -8.300000000000000E-003    1.282927060844254E-047
 -8.199999999999999E-003    0.000000000000000E+000
 -8.100000000000000E-003   -6.977244119065092E-047
 -8.000000000000000E-003   -1.545123647578181E-046
 -7.899999999999999E-003   -2.876426118348987E-046
 -7.800000000000000E-003   -4.058053765354630E-046
 -7.699999999999999E-003   -5.175535059318060E-046
 -7.599999999999999E-003   -6.057813058793376E-046
 -7.499999999999999E-003   -6.413423587808085E-046
 -7.399999999999999E-003   -5.157761989659005E-046
 -7.299999999999999E-003   -2.591512662905393E-046
 -7.199999999999999E-003    3.427812533114830E-046
 -7.100000000000000E-003    1.171136790630048E-045
 -6.999999999999999E-003    2.014459810325129E-045
 -6.899999999999999E-003    2.928904935823152E-045
 -6.800000000000000E-003    3.953254146200167E-045
 -6.699999999999999E-003    4.712853224277922E-045
 -6.599999999999999E-003    4.944862814731175E-045
 -6.499999999999999E-003    4.717638951492057E-045
 -6.399999999999999E-003    3.327630926946065E-045
 -6.299999999999999E-003    2.070225592188593E-045
 -6.199999999999999E-003   -7.500097171598850E-046
 -6.100000000000000E-003   -4.652887077174659E-045
 -5.999999999999999E-003   -9.532205405594803E-045
 -5.899999999999999E-003   -1.508384425144878E-044
 -5.800000000000000E-003   -2.010554080388641E-044
 -5.699999999999999E-003   -2.493747988974098E-044
 -5.599999999999999E-003   -2.821031326542377E-044
 -5.499999999999999E-003   -2.956748802776382E-044
 -5.399999999999999E-003   -2.642195160174864E-044
 -5.299999999999999E-003   -1.850763773535028E-044
 -5.199999999999999E-003   -3.865577211277558E-045
 -5.099999999999999E-003    1.770332185236729E-044
 -4.999999999999999E-003    4.528213908034416E-044
 -4.899999999999999E-003    7.729311163009173E-044
 -4.799999999999999E-003    1.110661386575700E-043
 -4.699999999999999E-003    1.426330831680538E-043
 -4.599999999999999E-003    1.648195679453238E-043
 -4.499999999999999E-003    1.723185685525102E-043
 -4.399999999999999E-003    1.565891700129985E-043
 -4.299999999999999E-003    1.106205716581322E-043
 -4.199999999999999E-003    2.887116812229944E-044
 -4.099999999999999E-003   -9.227785568909983E-044
 -3.999999999999999E-003   -2.502772052465442E-043
 -3.899999999999999E-003   -4.367746887772869E-043
 -3.799999999999999E-003   -6.348651233249620E-043
 -3.699999999999999E-003   -8.206148344825420E-043
 -3.599999999999999E-003   -9.616990139227332E-043
 -3.499999999999999E-003   -1.018883014338712E-042
 -3.399999999999999E-003   -9.503477145859747E-043
 -3.299999999999999E-003   -7.138385884902806E-043
 -3.199999999999999E-003   -2.770371771958907E-043
 -3.099999999999999E-003    3.766550943239023E-043
 -2.999999999999999E-003    1.238521422934298E-042
 -2.899999999999999E-003    2.267079707300463E-042
 -2.799999999999999E-003    3.378561490734227E-042
 -2.699999999999999E-003    4.445858702568831E-042
 -2.599999999999999E-003    5.297940740447567E-042
 -2.499999999999999E-003    5.727579990264711E-042
 -2.399999999999999E-003    5.508583193327834E-042
 -2.299999999999999E-003    4.420548166035297E-042
 -2.199999999999999E-003    2.281682416564820E-042
 -2.099999999999999E-003   -1.009017113221814E-042
 -1.999999999999999E-003   -5.427278052284471E-042
 -1.899999999999999E-003   -1.078042972638639E-041
 -1.799999999999999E-003   -1.666955868565283E-041
 -1.699999999999999E-003   -2.247306408918921E-041
 -1.599999999999999E-003   -2.734798075833755E-041
 -1.499999999999999E-003   -3.026862097097754E-041
 -1.399999999999999E-003   -3.010060006093781E-041
 -1.299999999999999E-003   -2.572183649918151E-041
 -1.199999999999999E-003   -1.618269557778258E-041
 -1.099999999999999E-003   -9.029062670981711E-043
 -9.999999999999989E-004    2.011948926188716E-041
 -8.999999999999990E-004    4.609835469644585E-041
 -7.999999999999990E-004    7.528468208575147E-041
 -6.999999999999989E-004    1.048641247221605E-040
 -5.999999999999990E-004    1.309716931867425E-040
 -4.999999999999989E-004    1.488459280660126E-040
 -3.999999999999989E-004    1.531654517292315E-040
 -2.999999999999989E-004    1.385785557420820E-040
 -1.999999999999989E-004    1.004170853031252E-040
 -9.999999999999892E-005    3.556360228108461E-041
  1.084202172485504E-018   -5.659690695390661E-041
  1.000000000000011E-004   -1.732466995268967E-040
  2.000000000000011E-004   -3.073479023698475E-040
  3.000000000000011E-004   -4.471653062374927E-040
  4.000000000000011E-004   -5.762626222498180E-040
  5.000000000000011E-004   -6.741245769148616E-040
  6.000000000000011E-004   -7.175322106835684E-040
  7.000000000000011E-004   -6.827485410760688E-040
  8.000000000000011E-004   -5.484820151703695E-040
  9.000000000000012E-004   -2.994819942545653E-040
  1.000000000000001E-003    6.950840885085590E-041
  1.100000000000001E-003    5.498652966699675E-040
  1.200000000000001E-003    1.115790342858465E-039
  1.300000000000001E-003    1.722249035711043E-039
  1.400000000000001E-003    2.304783359860227E-039
  1.500000000000001E-003    2.781820759510921E-039
  1.600000000000001E-003    3.059925497473829E-039
  1.700000000000001E-003    3.042221407363027E-039
  1.800000000000001E-003    2.639816417269381E-039
  1.900000000000001E-003    1.785652056926745E-039
  2.000000000000001E-003    4.496684734829591E-040
  2.100000000000001E-003   -1.346301284082545E-039
  2.200000000000001E-003   -3.515948749013016E-039
  2.300000000000001E-003   -5.900543133166942E-039
  2.400000000000001E-003   -8.268011690962789E-039
  2.500000000000001E-003   -1.032120239042527E-038
  2.600000000000001E-003   -1.171688717439872E-038
  2.700000000000001E-003   -1.209609475488199E-038
  2.800000000000001E-003   -1.112501592046235E-038
  2.900000000000001E-003   -8.544133706372675E-039
  3.000000000000001E-003   -4.221448806736210E-039
  3.100000000000001E-003    1.795978475356800E-039
  3.200000000000001E-003    9.239379137572050E-039
  3.300000000000001E-003    1.759247868039954E-038
  3.400000000000001E-003    2.609047915357146E-038
  3.500000000000001E-003    3.375060092318309E-038
  3.600000000000001E-003    3.943856551754348E-038
  3.700000000000001E-003    4.197180608159650E-038
  3.800000000000001E-003    4.025547077101216E-038
  3.900000000000001E-003    3.344183687208562E-038
  4.000000000000001E-003    2.109816042562031E-038
  4.100000000000001E-003    3.362915657231000E-039
  4.200000000000001E-003   -1.893328614102665E-038
  4.300000000000001E-003   -4.420710248658175E-038
  4.400000000000001E-003   -7.014538062241442E-038
  4.500000000000001E-003   -9.382943406970726E-038
  4.600000000000002E-003   -1.119687609007331E-037
  4.700000000000001E-003   -1.212395362810216E-037
  4.800000000000001E-003   -1.187069875132931E-037
  4.900000000000002E-003   -1.022939104132680E-037
  5.000000000000001E-003   -7.124112305837074E-038
  5.100000000000001E-003   -2.649310567473876E-038
  5.200000000000001E-003    2.906440823115058E-038
  5.300000000000002E-003    9.058541651654389E-038
  5.400000000000001E-003    1.515200653563857E-037
  5.500000000000001E-003    2.041772548143433E-037
  5.600000000000002E-003    2.405868236497241E-037
  5.700000000000001E-003    2.536071888878338E-037
  5.800000000000001E-003    2.381728709924846E-037
  5.900000000000002E-003    1.925255661895809E-037
  6.000000000000001E-003    1.192314475718145E-037
  6.100000000000001E-003    2.576563340778067E-038
  6.200000000000002E-003   -7.555012035756491E-038
  6.300000000000002E-003   -1.684305484574132E-037
  6.400000000000001E-003   -2.344244445482997E-037
  6.500000000000001E-003   -2.556033344347241E-037
  6.600000000000002E-003   -2.179672035703350E-037
  6.700000000000001E-003   -1.152237476485384E-037
  6.800000000000001E-003    4.756987366917538E-038
  6.900000000000002E-003    2.511526934601961E-037
  7.000000000000001E-003    4.607282751825024E-037
  7.100000000000001E-003    6.268786723035301E-037
  7.200000000000002E-003    6.893315851498805E-037
  7.300000000000002E-003    5.839239343580351E-037
  7.400000000000001E-003    2.527206575052264E-037
  7.500000000000001E-003   -3.432738954156719E-037
  7.600000000000002E-003   -1.209966258014545E-036
  7.700000000000001E-003   -2.306351180571183E-036
  7.800000000000001E-003   -3.533332487579864E-036
  7.900000000000001E-003   -4.727866769363089E-036
  8.000000000000002E-003   -5.665204733674069E-036
  8.100000000000001E-003   -6.071699612584714E-036
  8.200000000000001E-003   -5.649894437848947E-036
  8.300000000000002E-003   -4.116322227269677E-036
  8.400000000000001E-003   -1.250709934447919E-036
  8.500000000000002E-003    3.046852630088066E-036
  8.600000000000002E-003    8.696523762754105E-036
  8.700000000000001E-003    1.538508373168822E-035
  8.800000000000002E-003    2.252785282105674E-035
  8.900000000000002E-003    2.925690181986849E-035
  9.000000000000001E-003    3.444605871939240E-035
  9.100000000000002E-003    3.678140956384692E-035
  9.200000000000002E-003    3.488237259854148E-035
  9.300000000000001E-003    2.747294622366868E-035
  9.400000000000002E-003    1.359559302347414E-035
  9.500000000000001E-003   -7.148075479223553E-036
  9.600000000000001E-003   -3.435438872563954E-035
  9.700000000000002E-003   -6.660516945731942E-035
  9.800000000000001E-003   -1.013243957052482E-034
  9.900000000000001E-003   -1.347452932429508E-034
  1.000000000000000E-002   -1.620271894319740E-034
  1.010000000000000E-002   -1.775532186920961E-034
  1.020000000000000E-002   -1.754252192671181E-034
  1.030000000000000E-002   -1.501509440034808E-034
  1.040000000000000E-002   -9.749154983667404E-035
  1.050000000000000E-002   -1.540662506290756E-035
  1.060000000000000E-002    9.499798384822175E-035
  1.070000000000000E-002    2.286424723973247E-034
  1.080000000000000E-002    3.759093887784730E-034
  1.090000000000000E-002    5.224955572309819E-034
  1.100000000000000E-002    6.498217555352859E-034
  1.110000000000000E-002    7.361111545348616E-034
  1.120000000000000E-002    7.581942898279062E-034
  1.130000000000000E-002    6.940194751751649E-034
  1.140000000000000E-002    5.257539325333571E-034
  1.150000000000000E-002    2.432499638021383E-034
  1.160000000000000E-002   -1.524581219841977E-034
  1.170000000000000E-002   -6.460589627172908E-034
  1.180000000000000E-002   -1.205775012549869E-033
  1.190000000000000E-002   -1.782607416274310E-033
  1.200000000000000E-002   -2.311510938701256E-033
  1.210000000000000E-002   -2.714886684291095E-033
  1.220000000000000E-002   -2.908598205510906E-033
  1.230000000000000E-002   -2.810455665320234E-033
  1.240000000000000E-002   -2.350791892590538E-033
  1.250000000000000E-002   -1.484387719929067E-033
  1.260000000000000E-002   -2.026438211958367E-034
  1.270000000000000E-002    1.455434378457609E-033
  1.280000000000000E-002    3.395106074646838E-033
  1.290000000000000E-002    5.462370604230392E-033
  1.300000000000000E-002    7.446704125758824E-033
  1.310000000000000E-002    9.091360833694797E-033
  1.320000000000000E-002    1.011197692666767E-032
  1.330000000000000E-002    1.022337238304999E-032
  1.340000000000000E-002    9.173422157666666E-033
  1.350000000000000E-002    6.781720197821012E-033
  1.360000000000000E-002    2.979598521003685E-033
  1.370000000000000E-002   -2.152988757808674E-033
  1.380000000000000E-002   -8.358950355884241E-033
  1.390000000000000E-002   -1.518945293841763E-032
  1.400000000000000E-002   -2.200848565807446E-032
  1.410000000000000E-002   -2.802083833271312E-032
  1.420000000000000E-002   -3.232598914650431E-032
  1.430000000000000E-002   -3.399786250558946E-032
  1.440000000000000E-002   -3.218736513936132E-032
  1.450000000000000E-002   -2.624105494177289E-032
  1.460000000000000E-002   -1.582577941575053E-032
  1.470000000000000E-002   -1.045927058537257E-033
  1.480000000000000E-002    1.746237971878624E-032
  1.490000000000000E-002    3.847687674970850E-032
  1.500000000000000E-002    6.019055652261446E-032
  1.510000000000000E-002    8.028191738008592E-032
  1.520000000000000E-002    9.606231385157938E-032
  1.530000000000000E-002    1.047011010965488E-031
  1.540000000000000E-002    1.035205527511321E-031
  1.550000000000000E-002    9.034217006094135E-032
  1.560000000000000E-002    6.385574411231996E-032
  1.570000000000000E-002    2.397311769587977E-032
  1.580000000000000E-002   -2.787817893145212E-032
  1.590000000000000E-002   -8.856990323972544E-032
  1.600000000000000E-002   -1.532428917298187E-031
  1.610000000000000E-002   -2.154708354672919E-031
  1.620000000000000E-002   -2.676428517143209E-031
  1.630000000000000E-002   -3.015699325056122E-031
  1.640000000000000E-002   -3.092948764974400E-031
  1.650000000000000E-002   -2.840574345464427E-031
  1.660000000000000E-002   -2.213371010632327E-031
  1.670000000000000E-002   -1.198695419001554E-031
  1.680000000000000E-002    1.748682265122762E-032
  1.690000000000000E-002    1.831677081965255E-031
  1.700000000000000E-002    3.647333884021092E-031
  1.710000000000000E-002    5.452221064686492E-031
  1.720000000000000E-002    7.041004722748491E-031
  1.730000000000000E-002    8.188296891889406E-031
  1.740000000000000E-002    8.670005105333349E-031
  1.750000000000000E-002    8.289128572611048E-031
  1.760000000000000E-002    6.903978370655152E-031
  1.770000000000000E-002    4.456087836938475E-031
  1.780000000000000E-002    9.945338480884063E-032
  1.790000000000000E-002   -3.306885156817140E-031
  1.800000000000000E-002   -8.143109526032004E-031
  1.810000000000000E-002   -1.308490088415524E-030
  1.820000000000000E-002   -1.760156109459273E-030
  1.830000000000000E-002   -2.109998991343387E-030
  1.840000000000000E-002   -2.297894923163870E-030
  1.850000000000000E-002   -2.269547675448461E-030
  1.860000000000000E-002   -1.983834348915869E-030
  1.870000000000000E-002   -1.420157413128161E-030