 -4.000000000000000E-002    0.000000000000000E+000
 -3.990000000000000E-002    0.000000000000000E+000
 -3.980000000000000E-002    0.000000000000000E+000
 -3.970000000000000E-002    0.000000000000000E+000
 -3.960000000000000E-002    0.000000000000000E+000
 -3.950000000000000E-002    0.000000000000000E+000
 -3.940000000000000E-002    0.000000000000000E+000
 -3.930000000000000E-002    0.000000000000000E+000
 -3.920000000000000E-002    0.000000000000000E+000
 -3.910000000000000E-002    0.000000000000000E+000
 -3.900000000000000E-002    0.000000000000000E+000
 -3.890000000000000E-002    0.000000000000000E+000
 -3.880000000000000E-002    0.000000000000000E+000
 -3.870000000000000E-002    0.000000000000000E+000
 -3.860000000000000E-002    0.000000000000000E+000
 -3.850000000000000E-002    0.000000000000000E+000
 -3.840000000000000E-002    0.000000000000000E+000
 -3.830000000000000E-002    0.000000000000000E+000
 -3.820000000000000E-002    0.000000000000000E+000
 -3.810000000000000E-002    0.000000000000000E+000
 -3.800000000000000E-002    0.000000000000000E+000
 -3.790000000000000E-002    0.000000000000000E+000
 -3.780000000000000E-002    0.000000000000000E+000
 -3.770000000000000E-002    0.000000000000000E+000
 -3.760000000000000E-002    0.000000000000000E+000
 -3.750000000000000E-002    0.000000000000000E+000
 -3.740000000000000E-002    0.000000000000000E+000
 -3.730000000000000E-002    0.000000000000000E+000
 -3.720000000000000E-002    0.000000000000000E+000
 -3.710000000000000E-002    0.000000000000000E+000
 -3.700000000000000E-002    0.000000000000000E+000
 -3.690000000000000E-002    0.000000000000000E+000
 -3.680000000000000E-002    0.000000000000000E+000
 -3.670000000000000E-002    0.000000000000000E+000
 -3.660000000000000E-002    0.000000000000000E+000
 -3.650000000000000E-002    0.000000000000000E+000
 -3.640000000000000E-002    0.000000000000000E+000
 -3.630000000000000E-002    0.000000000000000E+000
 -3.620000000000000E-002    0.000000000000000E+000
 -3.610000000000000E-002    0.000000000000000E+000
 -3.600000000000000E-002    0.000000000000000E+000
 -3.590000000000000E-002    0.000000000000000E+000
 -3.580000000000000E-002    0.000000000000000E+000
 -3.570000000000000E-002    0.000000000000000E+000
 -3.560000000000000E-002    0.000000000000000E+000
 -3.550000000000000E-002    0.000000000000000E+000
 -3.540000000000000E-002    0.000000000000000E+000
 -3.530000000000000E-002    0.000000000000000E+000
 -3.520000000000000E-002    0.000000000000000E+000
 -3.510000000000000E-002    0.000000000000000E+000
 -3.500000000000000E-002    0.000000000000000E+000
 -3.490000000000000E-002    0.000000000000000E+000
 -3.480000000000000E-002    0.000000000000000E+000
 -3.470000000000000E-002    0.000000000000000E+000
 -3.460000000000000E-002    0.000000000000000E+000
 -3.450000000000000E-002    0.000000000000000E+000
 -3.440000000000000E-002    0.000000000000000E+000
 -3.430000000000000E-002    0.000000000000000E+000
 -3.420000000000000E-002    0.000000000000000E+000
 -3.410000000000000E-002    0.000000000000000E+000
 -3.400000000000000E-002    0.000000000000000E+000
 -3.390000000000000E-002    0.000000000000000E+000
 -3.380000000000000E-002    0.000000000000000E+000
 -3.370000000000000E-002    1.708295117466251E-046
 -3.360000000000000E-002    3.865614706227992E-046
 -3.350000000000000E-002    9.054646411668958E-046
 -3.340000000000000E-002    1.778856105812685E-045
 -3.330000000000000E-002    3.341980252749197E-045
 -3.320000000000000E-002    5.936696318124019E-045
 -3.310000000000000E-002    9.714389695116775E-045
 -3.300000000000000E-002    1.349946522070707E-044
 -3.290000000000000E-002    1.785552232938607E-044
 -3.280000000000000E-002    1.910789926181015E-044
 -3.270000000000000E-002    1.192610864299344E-044
 -3.260000000000000E-002   -1.501667868741303E-044
 -3.250000000000000E-002   -7.979605381525696E-044
 -3.240000000000000E-002   -2.105027546383312E-043
 -3.230000000000000E-002   -4.472875885764302E-043
 -3.220000000000000E-002   -8.413753221137978E-043
 -3.210000000000000E-002   -1.446125560285809E-042
 -3.200000000000000E-002   -2.295899859979314E-042
 -3.190000000000000E-002   -3.369858844987516E-042
 -3.180000000000000E-002   -4.513812545701616E-042
 -3.170000000000000E-002   -5.333841765320044E-042
 -3.160000000000000E-002   -5.036249599543910E-042
 -3.150000000000000E-002   -2.221266633246897E-042
 -3.140000000000000E-002    5.338221494233858E-042
 -3.130000000000000E-002    2.087894622904648E-041
 -3.120000000000000E-002    4.866288952862020E-041
 -3.110000000000000E-002    9.363228801089229E-041
 -3.100000000000000E-002    1.604081447999553E-040
 -3.090000000000000E-002    2.512236883961310E-040
 -3.080000000000000E-002    3.623415571355519E-040
 -3.070000000000000E-002    4.784837392819651E-040
 -3.060000000000000E-002    5.650167161957069E-040
 -3.050000000000000E-002    5.580854871979246E-040
 -3.040000000000000E-002    3.537726819940599E-040
 -3.030000000000000E-002   -2.011820442718455E-040
 -3.020000000000000E-002   -1.312533799086531E-039
 -3.010000000000000E-002   -3.228259516361318E-039
 -3.000000000000000E-002   -6.204583863835661E-039
 -2.990000000000000E-002   -1.043517814729044E-038
 -2.980000000000000E-002   -1.592896677668344E-038
 -2.970000000000000E-002   -2.232341184078100E-038
 -2.960000000000000E-002   -2.862687312968508E-038
 -2.950000000000000E-002   -3.289837331581078E-038
 -2.940000000000000E-002   -3.189871754213419E-038
 -2.930000000000000E-002   -2.078578345972893E-038
 -2.920000000000000E-002    7.020494194454486E-039
 -2.910000000000000E-002    5.961423657446327E-038
 -2.900000000000000E-002    1.457649220568976E-037
 -2.890000000000000E-002    2.731540964420335E-037
 -2.880000000000000E-002    4.453614945367274E-037
 -2.870000000000000E-002    6.573314474619345E-037
 -2.860000000000000E-002    8.892243287439542E-037
 -2.850000000000000E-002    1.098897627128947E-036
 -2.840000000000000E-002    1.213810566223059E-036
 -2.830000000000000E-002    1.123928053303037E-036
 -2.820000000000000E-002    6.782014290234380E-037
 -2.810000000000000E-002   -3.116654314358601E-037
 -2.800000000000000E-002   -2.055366245903257E-036
 -2.790000000000000E-002   -4.750519286915228E-036
 -2.780000000000000E-002   -8.526072019311098E-036
 -2.770000000000000E-002   -1.335846887693469E-035
 -2.760000000000000E-002   -1.895984742111602E-035
 -2.750000000000000E-002   -2.464353042777802E-035
 -2.740000000000000E-002   -2.918116266132724E-035
 -2.730000000000000E-002   -3.067809017024292E-035
 -2.720000000000000E-002   -2.650831892123289E-035
 -2.710000000000000E-002   -1.336605886308830E-035
 -2.700000000000000E-002    1.249550533136713E-035
 -2.690000000000000E-002    5.476042171844470E-035
 -2.680000000000000E-002    1.162085284477843E-034
 -2.670000000000000E-002    1.974883071912470E-034
 -2.660000000000000E-002    2.955073852133100E-034
 -2.650000000000000E-002    4.015281944848208E-034
 -2.640000000000000E-002    4.991765131102414E-034
 -2.630000000000000E-002    5.627242150197521E-034
 -2.620000000000000E-002    5.561819215165079E-034
 -2.610000000000000E-002    4.339100358991381E-034
 -2.600000000000000E-002    1.435901725361364E-034
 -2.590000000000000E-002   -3.675599053165380E-034
 -2.580000000000000E-002   -1.142558616219588E-033
 -2.570000000000000E-002   -2.199991065129301E-033
 -2.560000000000000E-002   -3.515100894728473E-033
 -2.550000000000000E-002   -4.997816205759388E-033
 -2.540000000000000E-002   -6.470185643649563E-033
 -2.530000000000000E-002   -7.647290093870148E-033
 -2.520000000000000E-002   -8.127384540954045E-033
 -2.510000000000000E-002   -7.398581961790466E-033
 -2.500000000000000E-002   -4.870388966609929E-033
 -2.490000000000000E-002    6.162168567792166E-035
 -2.480000000000000E-002    7.911375973367491E-033
 -2.470000000000000E-002    1.895530668242639E-032
 -2.460000000000000E-002    3.304650354423323E-032
 -2.450000000000000E-002    4.940304519331407E-032
 -2.440000000000000E-002    6.639548824328056E-032
 -2.430000000000000E-002    8.137221668936357E-032
 -2.420000000000000E-002    9.057508946526874E-032
 -2.410000000000000E-002    8.920930399508113E-032
 -2.400000000000000E-002    7.173673063158864E-032
 -2.390000000000000E-002    3.245791289031803E-032
 -2.380000000000000E-002   -3.357079119780085E-032
 -2.370000000000000E-002   -1.292746357396830E-031
 -2.360000000000000E-002   -2.539991026536296E-031
 -2.350000000000000E-002   -4.017733918807082E-031
 -2.340000000000000E-002   -5.596158238662951E-031
 -2.330000000000000E-002   -7.061996629371584E-031
 -2.320000000000000E-002   -8.112921332297965E-031
 -2.310000000000000E-002   -8.364472264416545E-031
 -2.300000000000000E-002   -7.374486274778542E-031
 -2.290000000000000E-002   -4.689350287037820E-031
 -2.280000000000000E-002    8.529700402266178E-033
 -2.270000000000000E-002    7.189766321715552E-031
 -2.260000000000000E-002    1.659608316279309E-030
 -2.250000000000000E-002    2.788451685985669E-030
 -2.240000000000000E-002    4.012742538711837E-030
 -2.230000000000000E-002    5.180342349210712E-030
 -2.220000000000000E-002    6.077036358019829E-030
 -2.210000000000000E-002    6.432875839260223E-030
 -2.200000000000000E-002    5.940641055778178E-030
 -2.190000000000000E-002    4.288863639549900E-030
 -2.180000000000000E-002    1.210501450199951E-030
 -2.170000000000000E-002   -3.453765796088339E-030
 -2.160000000000000E-002   -9.681536871042528E-030
 -2.150000000000000E-002   -1.719141141338149E-029
 -2.140000000000000E-002   -2.537366257646016E-029
 -2.130000000000000E-002   -3.324365332077744E-029
 -2.120000000000000E-002   -3.943548716566038E-029
 -2.110000000000000E-002   -4.225426535542158E-029
 -2.100000000000000E-002   -3.980368110626664E-029
 -2.090000000000000E-002   -3.020041835118668E-029
 -2.080000000000000E-002   -1.187765146248350E-029
 -2.070000000000000E-002    1.603360106193756E-029
 -2.060000000000000E-002    5.327378541380869E-029
 -2.050000000000000E-002    9.802307624315677E-029
 -2.040000000000000E-002    1.465370884096699E-028
 -2.030000000000000E-002    1.929357500270490E-028
 -2.020000000000000E-002    2.292416684729409E-028
 -2.010000000000000E-002    2.457636420923946E-028
 -2.000000000000000E-002    2.319045779651401E-028
 -1.990000000000000E-002    1.774378014990036E-028
 -1.980000000000000E-002    7.423897695255235E-029
 -1.970000000000000E-002   -8.161616735588768E-029
 -1.960000000000000E-002   -2.875711644714966E-028
 -1.950000000000000E-002   -5.324087455697359E-028
 -1.940000000000000E-002   -7.945504464482562E-028
 -1.930000000000000E-002   -1.041287108307736E-027
 -1.920000000000000E-002   -1.229421485616920E-027
 -1.910000000000000E-002   -1.307770243736246E-027
 -1.900000000000000E-002   -1.221854706473685E-027
 -1.890000000000000E-002   -9.208980560538104E-028
 -1.880000000000000E-002   -3.669339051788559E-028
 -1.870000000000000E-002    4.545666038363445E-028
 -1.860000000000000E-002    1.523597949159165E-027
 -1.850000000000000E-002    2.775567378510244E-027
 -1.840000000000000E-002    4.094201634513663E-027
 -1.830000000000000E-002    5.309588813758857E-027
 -1.820000000000000E-002    6.203547703593766E-027
 -1.810000000000000E-002    6.524213699549926E-027
 -1.800000000000000E-002    6.011020391035574E-027
 -1.790000000000000E-002    4.430117184285358E-027
 -1.780000000000000E-002    1.618710331560264E-027
 -1.770000000000000E-002   -2.465075155264073E-027
 -1.760000000000000E-002   -7.692247228067153E-027
 -1.750000000000000E-002   -1.372029685768619E-026
 -1.740000000000000E-002   -1.996675630511937E-026
 -1.730000000000000E-002   -2.560859157826468E-026
 -1.720000000000000E-002   -2.961661203303227E-026
 -1.710000000000000E-002   -3.083207798789606E-026
 -1.700000000000000E-002   -2.808897900288121E-026
 -1.690000000000000E-002   -2.037991817422829E-026
 -1.680000000000000E-002   -7.056432631973785E-027
 -1.670000000000000E-002    1.195358735629057E-026
 -1.660000000000000E-002    3.593708245096319E-026
 -1.650000000000000E-002    6.322876705370713E-026
 -1.640000000000000E-002    9.112405661579556E-026
 -1.630000000000000E-002    1.159113521776958E-025
 -1.620000000000000E-002    1.330589452428914E-025
 -1.610000000000000E-002    1.375811794596637E-025
 -1.600000000000000E-002    1.245907173204675E-025
 -1.590000000000000E-002    9.001941763397662E-026
 -1.580000000000000E-002    3.146038910380739E-026
 -1.570000000000000E-002   -5.094886364597102E-026
 -1.560000000000000E-002   -1.537140489689027E-025
 -1.550000000000000E-002   -2.693800353334851E-025
 -1.540000000000000E-002   -3.862871972038328E-025
 -1.530000000000000E-002   -4.888375385587920E-025
 -1.520000000000000E-002   -5.583947713309940E-025
 -1.510000000000000E-002   -5.748929857585276E-025
 -1.500000000000000E-002   -5.191511967590165E-025
 -1.490000000000000E-002   -3.757921092483117E-025
 -1.480000000000000E-002   -1.365461732466753E-025
 -1.470000000000000E-002    1.963982080155735E-025
 -1.460000000000000E-002    6.074490237036499E-025
 -1.450000000000000E-002    1.065601092400537E-024
 -1.440000000000000E-002    1.523925571610273E-024
 -1.430000000000000E-002    1.921084125906638E-024
 -1.420000000000000E-002    2.185270796024924E-024
 -1.410000000000000E-002    2.240770143429861E-024
 -1.400000000000000E-002    2.017016862217975E-024
 -1.390000000000000E-002    1.459660274206548E-024
 -1.380000000000000E-002    5.427196024833289E-025
 -1.370000000000000E-002   -7.195058242917342E-025
 -1.360000000000000E-002   -2.262462759697343E-024
 -1.350000000000000E-002   -3.965226017402021E-024
 -1.340000000000000E-002   -5.650186867382637E-024
 -1.330000000000000E-002   -7.090268505572696E-024
 -1.320000000000000E-002   -8.024862943748593E-024
 -1.310000000000000E-002   -8.184841846240288E-024
 -1.300000000000000E-002   -7.325862766206524E-024
 -1.290000000000000E-002   -5.267856787525808E-024
 -1.280000000000000E-002   -1.937146823394953E-024
 -1.270000000000000E-002    2.593696411095391E-024
 -1.260000000000000E-002    8.074221079977583E-024
 -1.250000000000000E-002    1.405919319973304E-023
 -1.240000000000000E-002    1.991276800386712E-023
 -1.230000000000000E-002    2.483899791961905E-023
 -1.220000000000000E-002    2.794186969535203E-023
 -1.210000000000000E-002    2.831500493848420E-023
 -1.200000000000000E-002    2.515724741198846E-023
 -1.190000000000000E-002    1.790588288048913E-023
 -1.180000000000000E-002    6.374731074822244E-024
 -1.170000000000000E-002   -9.119786912271055E-024
 -1.160000000000000E-002   -2.766434392368305E-023
 -1.150000000000000E-002   -4.770700763056305E-023
 -1.140000000000000E-002   -6.708754446837230E-023
 -1.130000000000000E-002   -8.315475954658785E-023
 -1.120000000000000E-002   -9.297844024534420E-023
 -1.110000000000000E-002   -9.365302913038673E-023
 -1.100000000000000E-002   -8.267741359947131E-023
 -1.090000000000000E-002   -5.838128171894358E-023
 -1.080000000000000E-002   -2.035475195794762E-023
 -1.070000000000000E-002    3.017340102046393E-023
 -1.060000000000000E-002    9.007098643939692E-023
 -1.050000000000000E-002    1.542140173465788E-022
 -1.040000000000000E-002    2.156308640008361E-022
 -1.030000000000000E-002    2.659188875718580E-022
 -1.020000000000000E-002    2.959485887392952E-022
 -1.010000000000000E-002    2.968366160195165E-022
 -1.000000000000000E-002    2.611302256812512E-022
 -9.899999999999999E-003    1.841039376451539E-022
 -9.800000000000000E-003    6.503080669308269E-023
 -9.699999999999999E-003   -9.173995025350606E-023
 -9.599999999999999E-003   -2.760832863611982E-022
 -9.500000000000000E-003   -4.719572056069292E-022
 -9.399999999999999E-003   -6.579733017549273E-022
 -9.299999999999999E-003   -8.087778811613225E-022
 -9.200000000000000E-003   -8.972632701985195E-022
 -9.099999999999999E-003   -8.975281328740187E-022
 -8.999999999999999E-003   -7.883914328791307E-022
 -8.900000000000000E-003   -5.571479145986129E-022
 -8.799999999999999E-003   -2.031499701856118E-022
 -8.699999999999999E-003    2.592747231545444E-022
 -8.600000000000000E-003    7.990910243115972E-022
 -8.499999999999999E-003    1.368502073736585E-021
 -8.399999999999999E-003    1.904967006931862E-021
 -8.300000000000000E-003    2.335516688967819E-021
 -8.199999999999999E-003    2.583354237757457E-021
 -8.100000000000000E-003    2.576439596631903E-021
 -8.000000000000000E-003    2.257440049871860E-021
 -7.899999999999999E-003    1.594117696815603E-021
 -7.800000000000000E-003    5.889615100072780E-022
 -7.699999999999999E-003   -7.133003430933854E-022
 -7.599999999999999E-003   -2.221712961843546E-021
 -7.499999999999999E-003   -3.799912147212767E-021
 -7.399999999999999E-003   -5.272707606984811E-021
 -7.299999999999999E-003   -6.438896050786505E-021
 -7.199999999999999E-003   -7.090089646757718E-021
 -7.100000000000000E-003   -7.034558579126486E-021
 -6.999999999999999E-003   -6.124244574495200E-021
 -6.899999999999999E-003   -4.282315439679540E-021
 -6.800000000000000E-003   -1.527986289922545E-021
 -6.699999999999999E-003    2.005020008182178E-021
 -6.599999999999999E-003    6.060011489643317E-021
 -6.499999999999999E-003    1.026203430577290E-020
 -6.399999999999999E-003    1.413798539135190E-020
 -6.299999999999999E-003    1.715294649728433E-020
 -6.199999999999999E-003    1.876173678161770E-020
 -6.100000000000000E-003    1.847261670144436E-020
 -5.999999999999999E-003    1.591793509707971E-020
 -5.899999999999999E-003    1.092459036911779E-020
 -5.800000000000000E-003    3.575711411083771E-021
 -5.699999999999999E-003   -5.745754737052138E-021
 -5.599999999999999E-003   -1.634055521723099E-020
 -5.499999999999999E-003   -2.721135117235176E-020
 -5.399999999999999E-003   -3.712054513529625E-020
 -5.299999999999999E-003   -4.468888387735890E-020
 -5.199999999999999E-003   -4.853123722723589E-020
 -5.099999999999999E-003   -4.742079819571891E-020
 -4.999999999999999E-003   -4.046772210599530E-020
 -4.899999999999999E-003   -2.729368836713171E-020
 -4.799999999999999E-003   -8.180652251049094E-021
 -4.699999999999999E-003    1.582915285123915E-020
 -4.599999999999999E-003    4.290363752739900E-020
 -4.499999999999999E-003    7.047919140601968E-020
 -4.399999999999999E-003    9.541736360423469E-020
 -4.299999999999999E-003    1.142606116587247E-019
 -4.199999999999999E-003    1.235762166121672E-019
 -4.099999999999999E-003    1.203647848188889E-019
 -3.999999999999999E-003    1.024975612316097E-019
 -3.899999999999999E-003    6.913650685289019E-020
 -3.799999999999999E-003    2.108422057649703E-020
 -3.699999999999999E-003   -3.899090264883905E-020
 -3.599999999999999E-003   -1.065046193069849E-019
 -3.499999999999999E-003   -1.751210252063439E-019
 -3.399999999999999E-003   -2.371523621352415E-019
 -3.299999999999999E-003   -2.841919394400143E-019
 -3.199999999999999E-003   -3.079501364352238E-019
 -3.099999999999999E-003   -3.012337048824950E-019
 -2.999999999999999E-003   -2.589811746471806E-019
 -2.899999999999999E-003   -1.792442247277383E-019
 -2.799999999999999E-003   -6.399116594160935E-020
 -2.699999999999999E-003    8.039295418831995E-020
 -2.599999999999999E-003    2.430229624331894E-019
 -2.499999999999999E-003    4.089320079816432E-019
 -2.399999999999999E-003    5.600339739983225E-019
 -2.299999999999999E-003    6.766168255311237E-019
 -2.199999999999999E-003    7.392897497434168E-019
 -2.099999999999999E-003    7.312410232734564E-019
 -1.999999999999999E-003    6.406028806770838E-019
 -1.899999999999999E-003    4.626708639935642E-019
 -1.799999999999999E-003    2.016986789577585E-019
 -1.699999999999999E-003   -1.280105272027515E-019
 -1.599999999999999E-003   -5.019627873093645E-019
 -1.499999999999999E-003   -8.864615622327272E-019
 -1.399999999999999E-003   -1.240806824080957E-018
 -1.299999999999999E-003   -1.520661037793649E-018
 -1.199999999999999E-003   -1.682398713887166E-018
 -1.099999999999999E-003   -1.688110358217349E-018
 -9.999999999999989E-004   -1.510806031819853E-018
 -8.999999999999990E-004   -1.139260242589744E-018
 -7.999999999999990E-004   -5.818923941298227E-019
 -6.999999999999989E-004    1.309163974188534E-019
 -5.999999999999990E-004    9.465887434790812E-019
 -4.999999999999989E-004    1.792566660480326E-018
 -3.999999999999989E-004    2.581128034946948E-018
 -2.999999999999989E-004    3.216683406424656E-018
 -1.999999999999989E-004    3.605132116866025E-018
 -9.999999999999892E-005    3.664558699397343E-018
  1.084202172485504E-018    3.336281176203452E-018
  1.000000000000011E-004    2.595066185243012E-018
  2.000000000000011E-004    1.457231736700600E-018
  3.000000000000011E-004   -1.460530289577006E-020
  4.000000000000011E-004   -1.711199731060854E-018
  5.000000000000011E-004   -3.481496973936134E-018
  6.000000000000011E-004   -5.142868052551671E-018
  7.000000000000011E-004   -6.496458684722791E-018
  8.000000000000011E-004   -7.346732043201238E-018
  9.000000000000012E-004   -7.523668308063839E-018
  1.000000000000001E-003   -6.905552170515998E-018
  1.100000000000001E-003   -5.439891022980465E-018
  1.200000000000001E-003   -3.159843001897780E-018
  1.300000000000001E-003   -1.936320497387232E-019
  1.400000000000001E-003    3.235169823768416E-018
  1.500000000000001E-003    6.817919963096840E-018
  1.600000000000001E-003    1.018219611012900E-017
  1.700000000000001E-003    1.292341060946784E-017
  1.800000000000001E-003    1.464478147311732E-017
  1.900000000000001E-003    1.500249136704086E-017
  2.000000000000001E-003    1.375178471380572E-017
  2.100000000000001E-003    1.078904026815559E-017
  2.200000000000001E-003    6.184537029904275E-018
  2.300000000000001E-003    2.009007622999195E-019
  2.400000000000001E-003   -6.706962944943498E-018
  2.500000000000001E-003   -1.391319658309393E-017
  2.600000000000001E-003   -2.066439205565869E-017
  2.700000000000001E-003   -2.614355011908715E-017
  2.800000000000001E-003   -2.955060081433314E-017
  2.900000000000001E-003   -3.019306597319623E-017
  3.000000000000001E-003   -2.757839074054556E-017
  3.100000000000001E-003   -2.149804502195774E-017
  3.200000000000001E-003   -1.209296146472121E-017
  3.300000000000001E-003    1.096050280561921E-019
  3.400000000000001E-003    1.419601143300254E-017
  3.500000000000001E-003    2.890835104945721E-017
  3.600000000000001E-003    4.273031948432042E-017
  3.700000000000001E-003    5.401384261885602E-017
  3.800000000000001E-003    6.113862562165033E-017
  3.900000000000001E-003    6.269204778982729E-017
  4.000000000000001E-003    5.765287936968275E-017
  4.100000000000001E-003    4.555948198188307E-017
  4.200000000000001E-003    2.664207054258350E-017
  4.300000000000001E-003    1.899692313725637E-018
  4.400000000000001E-003   -2.689433400064538E-017
  4.500000000000001E-003   -5.726922518743957E-017
  4.600000000000002E-003   -8.621926760276481E-017
  4.700000000000001E-003   -1.104467746618962E-016
  4.800000000000001E-003   -1.266708707151108E-016
  4.900000000000002E-003   -1.319783995329968E-016
  5.000000000000001E-003   -1.241854692890047E-016
  5.100000000000001E-003   -1.021727492565397E-016
  5.200000000000001E-003   -6.615519613566397E-017
  5.300000000000002E-003   -1.784867115149678E-017
  5.400000000000001E-003    3.949847008780785E-017
  5.500000000000001E-003    1.012306604529740E-016
  5.600000000000002E-003    1.615755160798133E-016
  5.700000000000001E-003    2.140913164662010E-016
  5.800000000000001E-003    2.522458032689641E-016
  5.900000000000002E-003    2.700833274750117E-016
  6.000000000000001E-003    2.629223998360758E-016
  6.100000000000001E-003    2.280146135452321E-016
  6.200000000000002E-003    1.650910917630453E-016
  6.300000000000002E-003    7.672436925799232E-017
  6.400000000000001E-003   -3.155629942322177E-017
  6.500000000000001E-003   -1.514407342818156E-016
  6.600000000000002E-003   -2.723245492613466E-016
  6.700000000000001E-003   -3.820969901987212E-016
  6.800000000000001E-003   -4.681869102729090E-016
  6.900000000000002E-003   -5.187924010656020E-016
  7.000000000000001E-003   -5.241897450273057E-016
  7.100000000000001E-003   -4.779970059235856E-016
  7.200000000000002E-003   -3.782552364133592E-016
  7.300000000000002E-003   -2.281926271730960E-016
  7.400000000000001E-003   -3.655222794764148E-017
  7.500000000000001E-003    1.826056014129674E-016
  7.600000000000002E-003    4.106720228656057E-016
  7.700000000000001E-003    6.258217469938550E-016
  7.800000000000001E-003    8.048419723715692E-016
  7.900000000000001E-003    9.253308452554141E-016
  8.000000000000002E-003    9.680848772836232E-016
  8.100000000000001E-003    9.194529365960305E-016
  8.200000000000001E-003    7.734090957127568E-016
  8.300000000000002E-003    5.330968049995871E-016
  8.400000000000001E-003    2.116194202046230E-016
  8.500000000000002E-003   -1.680963678820312E-016
  8.600000000000002E-003   -5.744637686930300E-016
  8.700000000000001E-003   -9.694311781201370E-016
  8.800000000000002E-003   -1.311608111872943E-015
  8.900000000000002E-003   -1.560113098490674E-015
  9.000000000000001E-003   -1.678832504855457E-015
  9.100000000000002E-003   -1.640700997655944E-015
  9.200000000000002E-003   -1.431563153495688E-015
  9.300000000000001E-003   -1.053166158039573E-015
  9.400000000000002E-003   -5.248683332180559E-016
  9.500000000000001E-003    1.162672771833674E-016
  9.600000000000001E-003    8.172005288784209E-016
  9.700000000000002E-003    1.512502314923949E-015
  9.800000000000001E-003    2.129656680530102E-015
  9.900000000000001E-003    2.595732917695332E-015
  1.000000000000000E-002    2.844899743751971E-015
  1.010000000000000E-002    2.826103535877921E-015
  1.020000000000000E-002    2.510132760828532E-015
  1.030000000000000E-002    1.895258965788313E-015
  1.040000000000000E-002    1.010697471130385E-015
  1.050000000000000E-002   -8.273589550302050E-017
  1.060000000000000E-002   -1.295179219980666E-015
  1.070000000000000E-002   -2.513611109525732E-015
  1.080000000000000E-002   -3.610858339173319E-015
  1.090000000000000E-002   -4.457164790182120E-015
  1.100000000000000E-002   -4.933425774066184E-015
  1.110000000000000E-002   -4.944908135337067E-015
  1.120000000000000E-002   -4.434087471307743E-015
  1.130000000000000E-002   -3.391157212227817E-015
  1.140000000000000E-002   -1.860832863894797E-015
  1.150000000000000E-002    5.570467147663170E-017
  1.160000000000000E-002    2.204517225681648E-015
  1.170000000000000E-002    4.388564836629543E-015
  1.180000000000000E-002    6.383021781588955E-015
  1.190000000000000E-002    7.955339325650759E-015
  1.200000000000000E-002    8.888540897390143E-015
  1.210000000000000E-002    9.005712480544819E-015
  1.220000000000000E-002    8.193285286839242E-015
  1.230000000000000E-002    6.420538704613622E-015
  1.240000000000000E-002    3.752848343483252E-015
  1.250000000000000E-002    3.565454736350618E-016
  1.260000000000000E-002   -3.506120249448560E-015
  1.270000000000000E-002   -7.492571785901228E-015
  1.280000000000000E-002   -1.120569821149325E-014
  1.290000000000000E-002   -1.422837835005726E-014
  1.300000000000000E-002   -1.616419873623647E-014
  1.310000000000000E-002   -1.668087850593284E-014
  1.320000000000000E-002   -1.555221267331609E-014
  1.330000000000000E-002   -1.269402375881768E-014
  1.340000000000000E-002   -8.189687428012893E-015
  1.350000000000000E-002   -2.301370101246126E-015
  1.360000000000000E-002    4.535857860633162E-015
  1.370000000000000E-002    1.173841913217559E-014
  1.380000000000000E-002    1.861676821058925E-014
  1.390000000000000E-002    2.443377415372614E-014
  1.400000000000000E-002    2.847475360460191E-014
  1.410000000000000E-002    3.012325970945712E-014
  1.420000000000000E-002    2.893545679647783E-014
  1.430000000000000E-002    2.470526360448542E-014
  1.440000000000000E-002    1.751247765491960E-014
  1.450000000000000E-002    7.747002257561783E-015
  1.460000000000000E-002   -3.896025332067540E-015
  1.470000000000000E-002   -1.645296329388251E-014
  1.480000000000000E-002   -2.876005462002776E-014
  1.490000000000000E-002   -3.954992601980443E-014
  1.500000000000000E-002   -4.756942268310742E-014
  1.510000000000000E-002   -5.170895698183469E-014
  1.520000000000000E-002   -5.113135835529310E-014
  1.530000000000000E-002   -4.538687551884540E-014
  1.540000000000000E-002   -3.450098580704107E-014
  1.550000000000000E-002   -1.902301879294317E-014
  1.560000000000000E-002   -2.634298129532401E-017
  1.570000000000000E-002    2.094513081502188E-014
  1.580000000000000E-002    4.198439092709944E-014
  1.590000000000000E-002    6.097740753964233E-014
  1.600000000000000E-002    7.579697860221078E-014
  1.610000000000000E-002    8.451838941327631E-014
  1.620000000000000E-002    8.563694923283117E-014
  1.630000000000000E-002    7.826526635673615E-014
  1.640000000000000E-002    6.228774288262758E-014
  1.650000000000000E-002    3.845195310068170E-014
  1.660000000000000E-002    8.380914870456107E-015
  1.670000000000000E-002   -2.550321728807039E-014
  1.680000000000000E-002   -6.014530066516403E-014
  1.690000000000000E-002   -9.210535008322623E-014
  1.700000000000000E-002   -1.178714838735420E-013
  1.710000000000000E-002   -1.342120440375738E-013
  1.720000000000000E-002   -1.385345332179173E-013
  1.730000000000000E-002   -1.292151696345013E-013
  1.740000000000000E-002   -1.058619521909398E-013
  1.750000000000000E-002   -6.947758112448268E-014
  1.760000000000000E-002   -2.249520469579964E-014
  1.770000000000000E-002    3.132924328844204E-014
  1.780000000000000E-002    8.717140772999257E-014
  1.790000000000000E-002    1.395279206754311E-013
  1.800000000000000E-002    1.827139679350828E-013
  1.810000000000000E-002    2.114285513325317E-013
  1.820000000000000E-002    2.213355499993384E-013
  1.830000000000000E-002    2.096024836881586E-013
  1.840000000000000E-002    1.753370270831885E-013
  1.850000000000000E-002    1.198665310357954E-013
  1.860000000000000E-002    4.681630626393175E-014
  1.870000000000000E-002   -3.804073676968966E-014