 -4.000000000000000E-002    0.000000000000000E+000
 -3.990000000000000E-002   -7.607031847990123E-007
 -3.980000000000000E-002   -2.280277427156648E-006
 -3.970000000000000E-002   -4.523618879086308E-006
 -3.960000000000000E-002   -7.428962194525489E-006
 -3.950000000000000E-002   -1.091706769676930E-005
 -3.940000000000000E-002   -1.490196827523309E-005
 -3.930000000000000E-002   -1.930210926362152E-005
 -3.920000000000000E-002   -2.405070559236373E-005
 -3.910000000000000E-002   -2.910422561533934E-005
 -3.900000000000000E-002   -3.444815988967492E-005
 -3.890000000000000E-002   -4.009950675615463E-005
 -3.880000000000000E-002   -4.610581556337574E-005
 -3.870000000000000E-002   -5.254094340960847E-005
 -3.860000000000000E-002   -5.949811391010547E-005
 -3.850000000000000E-002   -6.708107690011834E-005
 -3.840000000000000E-002   -7.539442126485072E-005
 -3.830000000000000E-002   -8.453412101980488E-005
 -3.820000000000000E-002   -9.457940542333926E-005
 -3.810000000000000E-002   -1.055868421403741E-004
 -3.800000000000000E-002   -1.175872597731680E-004
 -3.790000000000000E-002   -1.305858337895205E-004
 -3.780000000000000E-002   -1.445653435801437E-004
 -3.770000000000000E-002   -1.594921584241729E-004
 -3.760000000000000E-002   -1.753242829852423E-004
 -3.750000000000000E-002   -1.920205755332391E-004
 -3.740000000000000E-002   -2.095501304584244E-004
 -3.730000000000000E-002   -2.279007904157306E-004
 -3.720000000000000E-002   -2.470858001484831E-004
 -3.710000000000000E-002   -2.671481109189078E-004
 -3.700000000000000E-002   -2.881616175870203E-004
 -3.690000000000000E-002   -3.102295682317616E-004
 -3.680000000000000E-002   -3.334801226309226E-004
 -3.670000000000000E-002   -3.580597538770105E-004
 -3.660000000000000E-002   -3.841251883264692E-004
 -3.650000000000000E-002   -4.118349163064413E-004
 -3.640000000000000E-002   -4.413410777285538E-004
 -3.630000000000000E-002   -4.727828553967760E-004
 -3.620000000000000E-002   -5.062819311266224E-004
 -3.610000000000000E-002   -5.419404606198827E-004
 -3.600000000000000E-002   -5.798420006284608E-004
 -3.590000000000000E-002   -6.200550756416992E-004
 -3.580000000000000E-002   -6.626391274926242E-004
 -3.570000000000000E-002   -7.076519242999910E-004
 -3.560000000000000E-002   -7.551580724245529E-004
 -3.550000000000000E-002   -8.052372449369239E-004
 -3.540000000000000E-002   -8.579913946618228E-004
 -3.530000000000000E-002   -9.135506981855045E-004
 -3.520000000000000E-002   -9.720766146617679E-004
 -3.510000000000000E-002   -1.033763106614305E-003
 -3.500000000000000E-002   -1.098834464853737E-003
 -3.490000000000000E-002   -1.167541685071339E-003
 -3.480000000000000E-002   -1.240156296926906E-003
 -3.470000000000000E-002   -1.316963835469902E-003
 -3.460000000000000E-002   -1.398256331956704E-003
 -3.450000000000000E-002   -1.484325944217090E-003
 -3.440000000000000E-002   -1.575459714458886E-003
 -3.430000000000000E-002   -1.671936282552865E-003
 -3.420000000000000E-002   -1.774024699028881E-003
 -3.410000000000000E-002   -1.881986011936505E-003
 -3.400000000000000E-002   -1.996077218674076E-003
 -3.390000000000000E-002   -2.116556372034608E-003
 -3.380000000000000E-002   -2.243690225674892E-003
 -3.370000000000000E-002   -2.377761244317024E-003
 -3.360000000000000E-002   -2.519075710297709E-003
 -3.350000000000000E-002   -2.667969972676177E-003
 -3.340000000000000E-002   -2.824815348423908E-003
 -3.330000000000000E-002   -2.990021623377241E-003
 -3.320000000000000E-002   -3.164037349365551E-003
 -3.310000000000000E-002   -3.347349475182237E-003
 -3.300000000000000E-002   -3.540479476719041E-003
 -3.290000000000000E-002   -3.743979216089930E-003
 -3.280000000000000E-002   -3.958424942671797E-003
 -3.270000000000000E-002   -4.184412212752025E-003
 -3.260000000000000E-002   -4.422550747083854E-003
 -3.250000000000000E-002   -4.673460845325720E-003
 -3.240000000000000E-002   -4.937770359810858E-003
 -3.230000000000000E-002   -5.216115074978568E-003
 -3.220000000000000E-002   -5.509140956290368E-003
 -3.210000000000000E-002   -5.817507669116641E-003
 -3.200000000000000E-002   -6.141893363582570E-003
 -3.190000000000000E-002   -6.483003125819629E-003
 -3.180000000000000E-002   -6.841573884412439E-003
 -3.170000000000000E-002   -7.218382954314860E-003
 -3.160000000000000E-002   -7.614253313163827E-003
 -3.150000000000000E-002   -8.030058853835138E-003
 -3.140000000000000E-002   -8.466727391732305E-003
 -3.130000000000000E-002   -8.925242182767657E-003
 -3.120000000000000E-002   -9.406640804616851E-003
 -3.110000000000000E-002   -9.912014037608944E-003
 -3.100000000000000E-002   -1.044250238208248E-002
 -3.090000000000000E-002   -1.099929143452731E-002
 -3.080000000000000E-002   -1.158360800115134E-002
 -3.070000000000000E-002   -1.219671645397101E-002
 -3.060000000000000E-002   -1.283991697115331E-002
 -3.050000000000000E-002   -1.351454338707891E-002
 -3.040000000000000E-002   -1.422196380196550E-002
 -3.030000000000000E-002   -1.496358257886734E-002
 -3.020000000000000E-002   -1.574084538754134E-002
 -3.010000000000000E-002   -1.655524349583805E-002
 -3.000000000000000E-002   -1.740832100163940E-002
 -2.990000000000000E-002   -1.830168248262658E-002
 -2.980000000000000E-002   -1.923699568236834E-002
 -2.970000000000000E-002   -2.021600211877299E-002
 -2.960000000000000E-002   -2.124052016220505E-002
 -2.950000000000000E-002   -2.231244823948828E-002
 -2.940000000000000E-002   -2.343376695497566E-002
 -2.930000000000000E-002   -2.460653847981305E-002
 -2.920000000000000E-002   -2.583290857572100E-002
 -2.910000000000000E-002   -2.711510066602649E-002
 -2.900000000000000E-002   -2.845541574661779E-002
 -2.890000000000000E-002   -2.985622840050316E-002
 -2.880000000000000E-002   -3.131998503674147E-002
 -2.870000000000000E-002   -3.284919814251441E-002
 -2.860000000000000E-002   -3.444645315416941E-002
 -2.850000000000000E-002   -3.611440565303985E-002
 -2.840000000000000E-002   -3.785577854960210E-002
 -2.830000000000000E-002   -3.967337421990316E-002
 -2.820000000000000E-002   -4.157007921544068E-002
 -2.810000000000000E-002   -4.354886082798069E-002
 -2.800000000000000E-002   -4.561278598086806E-002
 -2.790000000000000E-002   -4.776501545458290E-002
 -2.780000000000000E-002   -5.000882122376746E-002
 -2.770000000000000E-002   -5.234758354966731E-002
 -2.760000000000000E-002   -5.478479694722741E-002
 -2.750000000000000E-002   -5.732406782985128E-002
 -2.740000000000000E-002   -5.996911927487115E-002
 -2.730000000000000E-002   -6.272378965778592E-002
 -2.720000000000000E-002   -6.559203907256594E-002
 -2.710000000000000E-002   -6.857792816740012E-002
 -2.700000000000000E-002   -7.168563037378824E-002
 -2.690000000000000E-002   -7.491941958176647E-002
 -2.680000000000000E-002   -7.828368799704195E-002
 -2.670000000000000E-002   -8.178291509944924E-002
 -2.660000000000000E-002   -8.542170001977017E-002
 -2.650000000000000E-002   -8.920473517074458E-002
 -2.640000000000000E-002   -9.313682938817418E-002
 -2.630000000000000E-002   -9.722290759351616E-002
 -2.620000000000000E-002   -0.101468007715229     
 -2.610000000000000E-002   -0.105877289981170     
 -2.600000000000000E-002   -0.110456043398168     
 -2.590000000000000E-002   -0.115209689954080     
 -2.580000000000000E-002   -0.120143780615136     
 -2.570000000000000E-002   -0.125264003361267     
 -2.560000000000000E-002   -0.130576196052092     
 -2.550000000000000E-002   -0.136086327121146     
 -2.540000000000000E-002   -0.141800494050198     
 -2.530000000000000E-002   -0.147724922760739     
 -2.520000000000000E-002   -0.153865973704334     
 -2.510000000000000E-002   -0.160230125064722     
 -2.500000000000000E-002   -0.166823984418407     
 -2.490000000000000E-002   -0.173654274291251     
 -2.480000000000000E-002   -0.180727828758817     
 -2.470000000000000E-002   -0.188051593693221     
 -2.460000000000000E-002   -0.195632629417716     
 -2.450000000000000E-002   -0.203478100818182     
 -2.440000000000000E-002   -0.211595293320946     
 -2.430000000000000E-002   -0.219991612937172     
 -2.420000000000000E-002   -0.228674560274871     
 -2.410000000000000E-002   -0.237651782207840     
 -2.400000000000000E-002   -0.246931022290712     
 -2.390000000000000E-002   -0.256520132025991     
 -2.380000000000000E-002   -0.266427087589527     
 -2.370000000000000E-002   -0.276659996135222     
 -2.360000000000000E-002   -0.287227052915888     
 -2.350000000000000E-002   -0.298136543804928     
 -2.340000000000000E-002   -0.309396852548981     
 -2.330000000000000E-002   -0.321016475269381     
 -2.320000000000000E-002   -0.333003946450585     
 -2.310000000000000E-002   -0.345367912197602     
 -2.300000000000000E-002   -0.358117066135776     
 -2.290000000000000E-002   -0.371260172965016     
 -2.280000000000000E-002   -0.384806031394299     
 -2.270000000000000E-002   -0.398763503970143     
 -2.260000000000000E-002   -0.413141457709846     
 -2.250000000000000E-002   -0.427948827952714     
 -2.240000000000000E-002   -0.443194559593100     
 -2.230000000000000E-002   -0.458887646217600     
 -2.220000000000000E-002   -0.475037088926010     
 -2.210000000000000E-002   -0.491651893834298     
 -2.200000000000000E-002   -0.508741103506242     
 -2.190000000000000E-002   -0.526313687051580     
 -2.180000000000000E-002   -0.544378726403880     
 -2.170000000000000E-002   -0.562945173034629     
 -2.160000000000000E-002   -0.582021958385346     
 -2.150000000000000E-002   -0.601618072859537     
 -2.140000000000000E-002   -0.621742292608766     
 -2.130000000000000E-002   -0.642403446417900     
 -2.120000000000000E-002   -0.663610193193545     
 -2.110000000000000E-002   -0.685371150105826     
 -2.100000000000000E-002   -0.707694815975013     
 -2.090000000000000E-002   -0.730589556658989     
 -2.080000000000000E-002   -0.754063578160697     
 -2.070000000000000E-002   -0.778124926967288     
 -2.060000000000000E-002   -0.802781507149680     
 -2.050000000000000E-002   -0.828041059951519     
 -2.040000000000000E-002   -0.853911108980511     
 -2.030000000000000E-002   -0.880398967137453     
 -2.020000000000000E-002   -0.907511778150153     
 -2.010000000000000E-002   -0.935256438905992     
 -2.000000000000000E-002   -0.963639608593342     
 -1.990000000000000E-002   -0.992667606900505     
 -1.980000000000000E-002    -1.02234648950941     
 -1.970000000000000E-002    -1.05268213074183     
 -1.960000000000000E-002    -1.08367998264484     
 -1.950000000000000E-002    -1.11534509165312     
 -1.940000000000000E-002    -1.14768241713656     
 -1.930000000000000E-002    -1.18069625306086     
 -1.920000000000000E-002    -1.21439065227031     
 -1.910000000000000E-002    -1.24876922418063     
 -1.900000000000000E-002    -1.28383508696047     
 -1.890000000000000E-002    -1.31959099349168     
 -1.880000000000000E-002    -1.35603919198102     
 -1.870000000000000E-002    -1.39318138873462     
 -1.860000000000000E-002    -1.43101887405030     
 -1.850000000000000E-002    -1.46955235360130     
 -1.840000000000000E-002    -1.50878195593378     
 -1.830000000000000E-002    -1.54870733281813     
 -1.820000000000000E-002    -1.58932749782186     
 -1.810000000000000E-002    -1.63064083946332     
 -1.800000000000000E-002    -1.67264517124072     
 -1.790000000000000E-002    -1.71533770194214     
 -1.780000000000000E-002    -1.75871483600041     
 -1.770000000000000E-002    -1.80277244187552     
 -1.760000000000000E-002    -1.84750562280393     
 -1.750000000000000E-002    -1.89290873187455     
 -1.740000000000000E-002    -1.93897538478831     
 -1.730000000000000E-002    -1.98569854757712     
 -1.720000000000000E-002    -2.03307029277200     
 -1.710000000000000E-002    -2.08108198210534     
 -1.700000000000000E-002    -2.12972391309496     
 -1.690000000000000E-002    -2.17898580269285     
 -1.680000000000000E-002    -2.22885641907474     
 -1.670000000000000E-002    -2.27932365346472     
 -1.660000000000000E-002    -2.33037456208362     
 -1.650000000000000E-002    -2.38199540244011     
 -1.640000000000000E-002    -2.43417124085185     
 -1.630000000000000E-002    -2.48688628240955     
 -1.620000000000000E-002    -2.54012403870922     
 -1.610000000000000E-002    -2.59386665436360     
 -1.600000000000000E-002    -2.64809565841087     
 -1.590000000000000E-002    -2.70279138646452     
 -1.580000000000000E-002    -2.75793335834054     
 -1.570000000000000E-002    -2.81349998363618     
 -1.560000000000000E-002    -2.86946868819039     
 -1.550000000000000E-002    -2.92581580112111     
 -1.540000000000000E-002    -2.98251654034287     
 -1.530000000000000E-002    -3.03954528610562     
 -1.520000000000000E-002    -3.09687549784981     
 -1.510000000000000E-002    -3.15447915903625     
 -1.500000000000000E-002    -3.21232731030405     
 -1.490000000000000E-002    -3.27039025646399     
 -1.480000000000000E-002    -3.32863710901775     
 -1.470000000000000E-002    -3.38703554776356     
 -1.460000000000000E-002    -3.44555265734216     
 -1.450000000000000E-002    -3.50415432714083     
 -1.440000000000000E-002    -3.56280523263377     
 -1.430000000000000E-002    -3.62146926082983     
 -1.420000000000000E-002    -3.68010887690872     
 -1.410000000000000E-002    -3.73868590004148     
 -1.400000000000000E-002    -3.79716109109844     
 -1.390000000000000E-002    -3.85549409771859     
 -1.380000000000000E-002    -3.91364329617137     
 -1.370000000000000E-002    -3.97156681137951     
 -1.360000000000000E-002    -4.02922088180727     
 -1.350000000000000E-002    -4.08656128282970     
 -1.340000000000000E-002    -4.14354302311271     
 -1.330000000000000E-002    -4.20012019348536     
 -1.320000000000000E-002    -4.25624516410628     
 -1.310000000000000E-002    -4.31187047941340     
 -1.300000000000000E-002    -4.36694740956778     
 -1.290000000000000E-002    -4.42142616074768     
 -1.280000000000000E-002    -4.47525659043245     
 -1.270000000000000E-002    -4.52838758374178     
 -1.260000000000000E-002    -4.58076715090448     
 -1.250000000000000E-002    -4.63234302482261     
 -1.240000000000000E-002    -4.68306136469503     
 -1.230000000000000E-002    -4.73286900724312     
 -1.220000000000000E-002    -4.78171106589400     
 -1.210000000000000E-002    -4.82953264580749     
 -1.200000000000000E-002    -4.87627819707917     
 -1.190000000000000E-002    -4.92189161029191     
 -1.180000000000000E-002    -4.96631665696889     
 -1.170000000000000E-002    -5.00949661679780     
 -1.160000000000000E-002    -5.05137447493478     
 -1.150000000000000E-002    -5.09189290175309     
 -1.140000000000000E-002    -5.13099405927529     
 -1.130000000000000E-002    -5.16862050936406     
 -1.120000000000000E-002    -5.20471387077369     
 -1.110000000000000E-002    -5.23921670482557     
 -1.100000000000000E-002    -5.27207083698705     
 -1.090000000000000E-002    -5.30321815838158     
 -1.080000000000000E-002    -5.33260084911631     
 -1.070000000000000E-002    -5.36016153543510     
 -1.060000000000000E-002    -5.38584249433183     
 -1.050000000000000E-002    -5.40958625790482     
 -1.040000000000000E-002    -5.43133640387181     
 -1.030000000000000E-002    -5.45103646652622     
 -1.020000000000000E-002    -5.46863045932842     
 -1.010000000000000E-002    -5.48406297137164     
 -1.000000000000000E-002    -5.49727919734626     
 -9.899999999999999E-003    -5.50822535653746     
 -9.800000000000000E-003    -5.51684794540715     
 -9.699999999999999E-003    -5.52309418572969     
 -9.599999999999999E-003    -5.52691273643275     
 -9.500000000000000E-003    -5.52825275978288     
 -9.399999999999999E-003    -5.52706478487486     
 -9.299999999999999E-003    -5.52329984168874     
 -9.200000000000000E-003    -5.51691080852792     
 -9.099999999999999E-003    -5.50785138702221     
 -8.999999999999999E-003    -5.49607694185978     
 -8.900000000000000E-003    -5.48154384114937     
 -8.799999999999999E-003    -5.46420995621165     
 -8.699999999999999E-003    -5.44403449404414     
 -8.600000000000000E-003    -5.42097847036493     
 -8.499999999999999E-003    -5.39500464133336     
 -8.399999999999999E-003    -5.36607750802721     
 -8.300000000000000E-003    -5.33416337411990     
 -8.199999999999999E-003    -5.29922974614201     
 -8.100000000000000E-003    -5.26124668730569     
 -8.000000000000000E-003    -5.22018591280033     
 -7.899999999999999E-003    -5.17602125659147     
 -7.800000000000000E-003    -5.12872891245383     
 -7.699999999999999E-003    -5.07828699204374     
 -7.599999999999999E-003    -5.02467569521472     
 -7.499999999999999E-003    -4.96787764634676     
 -7.399999999999999E-003    -4.90787797715372     
 -7.299999999999999E-003    -4.84466382056415     
 -7.199999999999999E-003    -4.77822483418189     
 -7.100000000000000E-003    -4.70855352629883     
 -6.999999999999999E-003    -4.63564428271550     
 -6.899999999999999E-003    -4.55949479640229     
 -6.800000000000000E-003    -4.48010417273723     
 -6.699999999999999E-003    -4.39747525727574     
 -6.599999999999999E-003    -4.31161341768600     
 -6.499999999999999E-003    -4.22252630047514     
 -6.399999999999999E-003    -4.13022455113462     
 -6.299999999999999E-003    -4.03472200189548     
 -6.199999999999999E-003    -3.93603455072056     
 -6.100000000000000E-003    -3.83418126800187     
 -5.999999999999999E-003    -3.72918414312095     
 -5.899999999999999E-003    -3.62106804097975     
 -5.800000000000000E-003    -3.50986027273673     
 -5.699999999999999E-003    -3.39559173080794     
 -5.599999999999999E-003    -3.27829561095971     
 -5.499999999999999E-003    -3.15800841027000     
 -5.399999999999999E-003    -3.03476941893407     
 -5.299999999999999E-003    -2.90862044418219     
 -5.199999999999999E-003    -2.77960679592649     
 -5.099999999999999E-003    -2.64777622511410     
 -4.999999999999999E-003    -2.51317965893277     
 -4.899999999999999E-003    -2.37587048454485     
 -4.799999999999999E-003    -2.23590533681325     
 -4.699999999999999E-003    -2.09334352667708     
 -4.599999999999999E-003    -1.94824714380921     
 -4.499999999999999E-003    -1.80068082642281     
 -4.399999999999999E-003    -1.65071224330737     
 -4.299999999999999E-003    -1.49841151533928     
 -4.199999999999999E-003    -1.34385156394409     
 -4.099999999999999E-003    -1.18710786611428     
 -3.999999999999999E-003    -1.02825850931646     
 -3.899999999999999E-003   -0.867383920667589     
 -3.799999999999999E-003   -0.704567158810165     
 -3.699999999999999E-003   -0.539893575744266     
 -3.599999999999999E-003   -0.373450803502516     
 -3.499999999999999E-003   -0.205328821904549     
 -3.399999999999999E-003   -3.561974001750197E-002
 -3.299999999999999E-003    0.135582144285722     
 -3.199999999999999E-003    0.308180590815990     
 -3.099999999999999E-003    0.482077400420874     
 -2.999999999999999E-003    0.657172390685374     
 -2.899999999999999E-003    0.833363593828616     
 -2.799999999999999E-003     1.01054736259187     
 -2.699999999999999E-003     1.18861846864374     
 -2.599999999999999E-003     1.36747004167118     
 -2.499999999999999E-003     1.54699387190155     
 -2.399999999999999E-003     1.72708035369371     
 -2.299999999999999E-003     1.90761855486522     
 -2.199999999999999E-003     2.08849642610004     
 -2.099999999999999E-003     2.26960107852390     
 -1.999999999999999E-003     2.45081845708814     
 -1.899999999999999E-003     2.63203361077985     
 -1.799999999999999E-003     2.81313128115688     
 -1.699999999999999E-003     2.99399498516291     
 -1.599999999999999E-003     3.17450835362643     
 -1.499999999999999E-003     3.35455415503306     
 -1.399999999999999E-003     3.53401524339203     
 -1.299999999999999E-003     3.71277393526862     
 -1.199999999999999E-003     3.89071295659079     
 -1.099999999999999E-003     4.06771488351192     
 -9.999999999999989E-004     4.24366242839598     
 -8.999999999999990E-004     4.41843867664520     
 -7.999999999999990E-004     4.59192700058599     
 -6.999999999999989E-004     4.76401170898549     
 -5.999999999999990E-004     4.93457704209256     
 -4.999999999999989E-004     5.10350871041427     
 -3.999999999999989E-004     5.27069314959015     
 -2.999999999999989E-004     5.43601777830679     
 -1.999999999999989E-004     5.59937106626372     
 -9.999999999999892E-005     5.76064285259347     
  1.084202172485504E-018     5.91972382681992     
  1.000000000000011E-004     6.07650692876730     
  2.000000000000011E-004     6.23088622039566     
  3.000000000000011E-004     6.38275741821968     
  4.000000000000011E-004     6.53201818214934     
  5.000000000000011E-004     6.67856815107616     
  6.000000000000011E-004     6.82230887387457     
  7.000000000000011E-004     6.96314352106642     
  8.000000000000011E-004     7.10097819848413     
  9.000000000000012E-004     7.23572151297917     
  1.000000000000001E-003     7.36728334027588     
  1.100000000000001E-003     7.49557726303202     
  1.200000000000001E-003     7.62051845225437     
  1.300000000000001E-003     7.74202561098697     
  1.400000000000001E-003     7.86001964983830     
  1.500000000000001E-003     7.97442448921970     
  1.600000000000001E-003     8.08516657618471     
  1.700000000000001E-003     8.19217564071337     
  1.800000000000001E-003     8.29538488469134     
  1.900000000000001E-003     8.39472932353264     
  2.000000000000001E-003     8.49014860473436     
  2.100000000000001E-003     8.58158526710578     
  2.200000000000001E-003     8.66898463281298     
  2.300000000000001E-003     8.75229600139238     
  2.400000000000001E-003     8.83147134107870     
  2.500000000000001E-003     8.90646646001558     
  2.600000000000001E-003     8.97724117068173     
  2.700000000000001E-003     9.04375799988714     
  2.800000000000001E-003     9.10598260533721     
  2.900000000000001E-003     9.16388585813470     
  3.000000000000001E-003     9.21744005079544     
  3.100000000000001E-003     9.26662295636351     
  3.200000000000001E-003     9.31141523155766     
  3.300000000000001E-003     9.35180127570157     
  3.400000000000001E-003     9.38776877460707     
  3.500000000000001E-003     9.41930974187813     
  3.600000000000001E-003     9.44641928451306     
  3.700000000000001E-003     9.46909717720856     
  3.800000000000001E-003     9.48734447876872     
  3.900000000000001E-003     9.50116844085981     
  4.000000000000001E-003     9.51057863105075     
  4.100000000000001E-003     9.51558756159066     
  4.200000000000001E-003     9.51621234777772     
  4.300000000000001E-003     9.51247364234819     
  4.400000000000001E-003     9.50439482150476     
  4.500000000000001E-003     9.49200342240137     
  4.600000000000002E-003     9.47532997768043     
  4.700000000000001E-003     9.45440815436362     
  4.800000000000001E-003     9.42927522568728     
  4.900000000000002E-003     9.39997218150961     
  5.000000000000001E-003     9.36654151878336     
  5.100000000000001E-003     9.32903101878516     
  5.200000000000001E-003     9.28748998972398     
  5.300000000000002E-003     9.24197182591228     
  5.400000000000001E-003     9.19253133298138     
  5.500000000000001E-003     9.13922722839750     
  5.600000000000002E-003     9.08212179286830     
  5.700000000000001E-003     9.02127775994342     
  5.800000000000001E-003     8.95676209824267     
  5.900000000000002E-003     8.88864364785388     
  6.000000000000001E-003     8.81699432833139     
  6.100000000000001E-003     8.74188797644839     
  6.200000000000002E-003     8.66339991316164     
  6.300000000000002E-003     8.58160900887616     
  6.400000000000001E-003     8.49659533376336     
  6.500000000000001E-003     8.40844141681156     
  6.600000000000002E-003     8.31723130365330     
  6.700000000000001E-003     8.22304982335050     
  6.800000000000001E-003     8.12598558463158     
  6.900000000000002E-003     8.02612730748951     
  7.000000000000001E-003     7.92356540259855     
  7.100000000000001E-003     7.81839195673324     
  7.200000000000002E-003     7.71070006670131     
  7.300000000000002E-003     7.60058405857223     
  7.400000000000001E-003     7.48813928559557     
  7.500000000000001E-003     7.37346248319006     
  7.600000000000002E-003     7.25665015947533     
  7.700000000000001E-003     7.13780023744413     
  7.800000000000001E-003     7.01701161488156     
  7.900000000000001E-003     6.89438272443671     
  8.000000000000002E-003     6.77001319140132     
  8.100000000000001E-003     6.64400252823643     
  8.200000000000001E-003     6.51645055661298     
  8.300000000000002E-003     6.38745736503809     
  8.400000000000001E-003     6.25712297136198     
  8.500000000000002E-003     6.12554719088350     
  8.600000000000002E-003     5.99282992518735     
  8.700000000000001E-003     5.85907035969515     
  8.800000000000002E-003     5.72436769085001     
  8.900000000000002E-003     5.58881999728228     
  9.000000000000001E-003     5.45252579437847     
  9.100000000000002E-003     5.31558195348316     
  9.200000000000002E-003     5.17808547585522     
  9.300000000000001E-003     5.04013192218725     
  9.400000000000002E-003     4.90181620218327     
  9.500000000000001E-003     4.76323228929881     
  9.600000000000001E-003     4.62447258561218     
  9.700000000000002E-003     4.48562865324312     
  9.800000000000001E-003     4.34679118190021     
  9.900000000000001E-003     4.20804851497951     
  1.000000000000000E-002     4.06948875863886     
  1.010000000000000E-002     3.93119780800320     
  1.020000000000000E-002     3.79326044533547     
  1.030000000000000E-002     3.65575951890308     
  1.040000000000000E-002     3.51877674589369     
  1.050000000000000E-002     3.38239165342980     
  1.060000000000000E-002     3.24668227931115     
  1.070000000000000E-002     3.11172482499721     
  1.080000000000000E-002     2.97759371299632     
  1.090000000000000E-002     2.84436171818976     
  1.100000000000000E-002     2.71209915516585     
  1.110000000000000E-002     2.58087461749904     
  1.120000000000000E-002     2.45075471605781     
  1.130000000000000E-002     2.32180414065706     
  1.140000000000000E-002     2.19408541300474     
  1.150000000000000E-002     2.06765892297028     
  1.160000000000000E-002     1.94258290959042     
  1.170000000000000E-002     1.81891335845376     
  1.180000000000000E-002     1.69670435377114     
  1.190000000000000E-002     1.57600772336927     
  1.200000000000000E-002     1.45687306871846     
  1.210000000000000E-002     1.33934776647987     
  1.220000000000000E-002     1.22347688622800     
  1.230000000000000E-002     1.10930349994161     
  1.240000000000000E-002    0.996868400626199     
  1.250000000000000E-002    0.886210137215776     
  1.260000000000000E-002    0.777365056098608     
  1.270000000000000E-002    0.670367331958281     
  1.280000000000000E-002    0.565248938305077     
  1.290000000000000E-002    0.462039706761221     
  1.300000000000000E-002    0.360767245790488     
  1.310000000000000E-002    0.261456997710278     
  1.320000000000000E-002    0.164132349147271     
  1.330000000000000E-002    6.881445144095480E-002
  1.340000000000000E-002   -2.447755183016795E-002
  1.350000000000000E-002   -0.115726621048730     
  1.360000000000000E-002   -0.204917740654871     
  1.370000000000000E-002   -0.292037988980937     
  1.380000000000000E-002   -0.377076384050664     
  1.390000000000000E-002   -0.460023929697876     
  1.400000000000000E-002   -0.540873517756762     
  1.410000000000000E-002   -0.619619974172678     
  1.420000000000000E-002   -0.696259968924826     
  1.430000000000000E-002   -0.770791911692288     
  1.440000000000000E-002   -0.843216098592921     
  1.450000000000000E-002   -0.913534463238267     
  1.460000000000000E-002   -0.981750694870485     
  1.470000000000000E-002    -1.04787008840313     
  1.480000000000000E-002    -1.11189961507504     
  1.490000000000000E-002    -1.17384773715650     
  1.500000000000000E-002    -1.23372446518126     
  1.510000000000000E-002    -1.29154127337599     
  1.520000000000000E-002    -1.34731105451155     
  1.530000000000000E-002    -1.40104819825211     
  1.540000000000000E-002    -1.45276824852810     
  1.550000000000000E-002    -1.50248825347734     
  1.560000000000000E-002    -1.55022634027049     
  1.570000000000000E-002    -1.59600180643741     
  1.580000000000000E-002    -1.63983529996600     
  1.590000000000000E-002    -1.68174839042927     
  1.600000000000000E-002    -1.72176373050585     
  1.610000000000000E-002    -1.75990496304445     
  1.620000000000000E-002    -1.79619674713621     
  1.630000000000000E-002    -1.83066451163014     
  1.640000000000000E-002    -1.86333460251586     
  1.650000000000000E-002    -1.89423405667150     
  1.660000000000000E-002    -1.92339090511180     
  1.670000000000000E-002    -1.95083358184686     
  1.680000000000000E-002    -1.97659138653456     
  1.690000000000000E-002    -2.00069415428397     
  1.700000000000000E-002    -2.02317221633836     
  1.710000000000000E-002    -2.04405649878112     
  1.720000000000000E-002    -2.06337832551714     
  1.730000000000000E-002    -2.08116966273014     
  1.740000000000000E-002    -2.09746257053331     
  1.750000000000000E-002    -2.11228963876940     
  1.760000000000000E-002    -2.12568376827096     
  1.770000000000000E-002    -2.13767806926219     
  1.780000000000000E-002    -2.14830569293149     
  1.790000000000000E-002    -2.15760030162042     
  1.800000000000000E-002    -2.16559542165298     
  1.810000000000000E-002    -2.17232495325450     
  1.820000000000000E-002    -2.17782243393763     
  1.830000000000000E-002    -2.18212193837781     
  1.840000000000000E-002    -2.18525701992334     
  1.850000000000000E-002    -2.18726162969100     
  1.860000000000000E-002    -2.18816924024554     
  1.870000000000000E-002    -2.18801363805103     