 -4.000000000000000E-002    0.000000000000000E+000
 -3.990000000000000E-002    0.000000000000000E+000
 -3.980000000000000E-002    0.000000000000000E+000
 -3.970000000000000E-002    0.000000000000000E+000
 -3.960000000000000E-002    0.000000000000000E+000
 -3.950000000000000E-002    0.000000000000000E+000
 -3.940000000000000E-002    0.000000000000000E+000
 -3.930000000000000E-002    0.000000000000000E+000
 -3.920000000000000E-002    0.000000000000000E+000
 -3.910000000000000E-002    0.000000000000000E+000
 -3.900000000000000E-002    0.000000000000000E+000
 -3.890000000000000E-002    0.000000000000000E+000
 -3.880000000000000E-002    0.000000000000000E+000
 -3.870000000000000E-002    0.000000000000000E+000
 -3.860000000000000E-002    0.000000000000000E+000
 -3.850000000000000E-002    0.000000000000000E+000
 -3.840000000000000E-002    0.000000000000000E+000
 -3.830000000000000E-002    0.000000000000000E+000
 -3.820000000000000E-002    0.000000000000000E+000
 -3.810000000000000E-002    0.000000000000000E+000
 -3.800000000000000E-002    0.000000000000000E+000
 -3.790000000000000E-002    0.000000000000000E+000
 -3.780000000000000E-002    0.000000000000000E+000
 -3.770000000000000E-002    0.000000000000000E+000
 -3.760000000000000E-002    0.000000000000000E+000
 -3.750000000000000E-002    0.000000000000000E+000
 -3.740000000000000E-002    0.000000000000000E+000
 -3.730000000000000E-002    0.000000000000000E+000
 -3.720000000000000E-002    0.000000000000000E+000
 -3.710000000000000E-002    0.000000000000000E+000
 -3.700000000000000E-002    0.000000000000000E+000
 -3.690000000000000E-002    0.000000000000000E+000
 -3.680000000000000E-002    0.000000000000000E+000
 -3.670000000000000E-002    0.000000000000000E+000
 -3.660000000000000E-002    0.000000000000000E+000
 -3.650000000000000E-002    0.000000000000000E+000
 -3.640000000000000E-002    0.000000000000000E+000
 -3.630000000000000E-002    0.000000000000000E+000
 -3.620000000000000E-002    0.000000000000000E+000
 -3.610000000000000E-002    0.000000000000000E+000
 -3.600000000000000E-002    0.000000000000000E+000
 -3.590000000000000E-002    0.000000000000000E+000
 -3.580000000000000E-002    0.000000000000000E+000
 -3.570000000000000E-002    0.000000000000000E+000
 -3.560000000000000E-002    0.000000000000000E+000
 -3.550000000000000E-002    0.000000000000000E+000
 -3.540000000000000E-002    0.000000000000000E+000
 -3.530000000000000E-002    0.000000000000000E+000
 -3.520000000000000E-002    0.000000000000000E+000
 -3.510000000000000E-002    0.000000000000000E+000
 -3.500000000000000E-002    0.000000000000000E+000
 -3.490000000000000E-002    0.000000000000000E+000
 -3.480000000000000E-002    0.000000000000000E+000
 -3.470000000000000E-002    0.000000000000000E+000
 -3.460000000000000E-002    0.000000000000000E+000
 -3.450000000000000E-002    0.000000000000000E+000
 -3.440000000000000E-002    0.000000000000000E+000
 -3.430000000000000E-002    0.000000000000000E+000
 -3.420000000000000E-002    0.000000000000000E+000
 -3.410000000000000E-002    0.000000000000000E+000
 -3.400000000000000E-002    0.000000000000000E+000
 -3.390000000000000E-002    0.000000000000000E+000
 -3.380000000000000E-002    0.000000000000000E+000
 -3.370000000000000E-002    0.000000000000000E+000
 -3.360000000000000E-002    0.000000000000000E+000
 -3.350000000000000E-002    0.000000000000000E+000
 -3.340000000000000E-002    0.000000000000000E+000
 -3.330000000000000E-002    0.000000000000000E+000
 -3.320000000000000E-002    0.000000000000000E+000
 -3.310000000000000E-002    0.000000000000000E+000
 -3.300000000000000E-002    0.000000000000000E+000
 -3.290000000000000E-002    0.000000000000000E+000
 -3.280000000000000E-002    0.000000000000000E+000
 -3.270000000000000E-002    0.000000000000000E+000
 -3.260000000000000E-002    0.000000000000000E+000
 -3.250000000000000E-002    0.000000000000000E+000
 -3.240000000000000E-002    0.000000000000000E+000
 -3.230000000000000E-002    0.000000000000000E+000
 -3.220000000000000E-002    0.000000000000000E+000
 -3.210000000000000E-002    0.000000000000000E+000
 -3.200000000000000E-002    0.000000000000000E+000
 -3.190000000000000E-002    0.000000000000000E+000
 -3.180000000000000E-002    0.000000000000000E+000
 -3.170000000000000E-002    0.000000000000000E+000
 -3.160000000000000E-002    0.000000000000000E+000
 -3.150000000000000E-002    0.000000000000000E+000
 -3.140000000000000E-002    0.000000000000000E+000
 -3.130000000000000E-002    0.000000000000000E+000
 -3.120000000000000E-002    0.000000000000000E+000
 -3.110000000000000E-002    0.000000000000000E+000
 -3.100000000000000E-002    0.000000000000000E+000
 -3.090000000000000E-002    0.000000000000000E+000
 -3.080000000000000E-002    0.000000000000000E+000
 -3.070000000000000E-002    0.000000000000000E+000
 -3.060000000000000E-002    0.000000000000000E+000
 -3.050000000000000E-002    0.000000000000000E+000
 -3.040000000000000E-002    0.000000000000000E+000
 -3.030000000000000E-002    0.000000000000000E+000
 -3.020000000000000E-002    0.000000000000000E+000
 -3.010000000000000E-002    0.000000000000000E+000
 -3.000000000000000E-002    0.000000000000000E+000
 -2.990000000000000E-002    0.000000000000000E+000
 -2.980000000000000E-002    0.000000000000000E+000
 -2.970000000000000E-002    0.000000000000000E+000
 -2.960000000000000E-002    0.000000000000000E+000
 -2.950000000000000E-002    0.000000000000000E+000
 -2.940000000000000E-002    0.000000000000000E+000
 -2.930000000000000E-002    0.000000000000000E+000
 -2.920000000000000E-002    0.000000000000000E+000
 -2.910000000000000E-002    0.000000000000000E+000
 -2.900000000000000E-002    0.000000000000000E+000
 -2.890000000000000E-002    0.000000000000000E+000
 -2.880000000000000E-002    0.000000000000000E+000
 -2.870000000000000E-002    0.000000000000000E+000
 -2.860000000000000E-002    0.000000000000000E+000
 -2.850000000000000E-002    0.000000000000000E+000
 -2.840000000000000E-002    0.000000000000000E+000
 -2.830000000000000E-002    0.000000000000000E+000
 -2.820000000000000E-002    0.000000000000000E+000
 -2.810000000000000E-002    0.000000000000000E+000
 -2.800000000000000E-002    0.000000000000000E+000
 -2.790000000000000E-002    0.000000000000000E+000
 -2.780000000000000E-002    0.000000000000000E+000
 -2.770000000000000E-002    0.000000000000000E+000
 -2.760000000000000E-002    0.000000000000000E+000
 -2.750000000000000E-002    0.000000000000000E+000
 -2.740000000000000E-002    0.000000000000000E+000
 -2.730000000000000E-002    0.000000000000000E+000
 -2.720000000000000E-002    0.000000000000000E+000
 -2.710000000000000E-002    0.000000000000000E+000
 -2.700000000000000E-002    0.000000000000000E+000
 -2.690000000000000E-002    0.000000000000000E+000
 -2.680000000000000E-002    0.000000000000000E+000
 -2.670000000000000E-002    0.000000000000000E+000
 -2.660000000000000E-002    0.000000000000000E+000
 -2.650000000000000E-002    0.000000000000000E+000
 -2.640000000000000E-002    0.000000000000000E+000
 -2.630000000000000E-002    0.000000000000000E+000
 -2.620000000000000E-002    0.000000000000000E+000
 -2.610000000000000E-002    0.000000000000000E+000
 -2.600000000000000E-002    0.000000000000000E+000
 -2.590000000000000E-002    0.000000000000000E+000
 -2.580000000000000E-002    0.000000000000000E+000
 -2.570000000000000E-002    0.000000000000000E+000
 -2.560000000000000E-002    0.000000000000000E+000
 -2.550000000000000E-002    0.000000000000000E+000
 -2.540000000000000E-002    0.000000000000000E+000
 -2.530000000000000E-002    0.000000000000000E+000
 -2.520000000000000E-002    0.000000000000000E+000
 -2.510000000000000E-002    0.000000000000000E+000
 -2.500000000000000E-002    0.000000000000000E+000
 -2.490000000000000E-002    0.000000000000000E+000
 -2.480000000000000E-002    0.000000000000000E+000
 -2.470000000000000E-002    0.000000000000000E+000
 -2.460000000000000E-002    0.000000000000000E+000
 -2.450000000000000E-002    0.000000000000000E+000
 -2.440000000000000E-002    0.000000000000000E+000
 -2.430000000000000E-002    0.000000000000000E+000
 -2.420000000000000E-002    0.000000000000000E+000
 -2.410000000000000E-002    0.000000000000000E+000
 -2.400000000000000E-002    0.000000000000000E+000
 -2.390000000000000E-002    0.000000000000000E+000
 -2.380000000000000E-002    0.000000000000000E+000
 -2.370000000000000E-002    0.000000000000000E+000
 -2.360000000000000E-002    0.000000000000000E+000
 -2.350000000000000E-002    0.000000000000000E+000
 -2.340000000000000E-002    0.000000000000000E+000
 -2.330000000000000E-002    0.000000000000000E+000
 -2.320000000000000E-002    0.000000000000000E+000
 -2.310000000000000E-002    0.000000000000000E+000
 -2.300000000000000E-002    0.000000000000000E+000
 -2.290000000000000E-002    0.000000000000000E+000
 -2.280000000000000E-002    0.000000000000000E+000
 -2.270000000000000E-002    0.000000000000000E+000
 -2.260000000000000E-002    0.000000000000000E+000
 -2.250000000000000E-002    0.000000000000000E+000
 -2.240000000000000E-002    0.000000000000000E+000
 -2.230000000000000E-002    0.000000000000000E+000
 -2.220000000000000E-002    0.000000000000000E+000
 -2.210000000000000E-002    0.000000000000000E+000
 -2.200000000000000E-002    0.000000000000000E+000
 -2.190000000000000E-002    0.000000000000000E+000
 -2.180000000000000E-002    0.000000000000000E+000
 -2.170000000000000E-002    0.000000000000000E+000
 -2.160000000000000E-002    0.000000000000000E+000
 -2.150000000000000E-002    0.000000000000000E+000
 -2.140000000000000E-002    0.000000000000000E+000
 -2.130000000000000E-002    0.000000000000000E+000
 -2.120000000000000E-002    0.000000000000000E+000
 -2.110000000000000E-002    0.000000000000000E+000
 -2.100000000000000E-002    0.000000000000000E+000
 -2.090000000000000E-002    0.000000000000000E+000
 -2.080000000000000E-002    0.000000000000000E+000
 -2.070000000000000E-002    0.000000000000000E+000
 -2.060000000000000E-002    0.000000000000000E+000
 -2.050000000000000E-002    0.000000000000000E+000
 -2.040000000000000E-002    0.000000000000000E+000
 -2.030000000000000E-002    0.000000000000000E+000
 -2.020000000000000E-002    0.000000000000000E+000
 -2.010000000000000E-002    0.000000000000000E+000
 -2.000000000000000E-002    0.000000000000000E+000
 -1.990000000000000E-002    0.000000000000000E+000
 -1.980000000000000E-002    0.000000000000000E+000
 -1.970000000000000E-002    0.000000000000000E+000
 -1.960000000000000E-002    0.000000000000000E+000
 -1.950000000000000E-002    0.000000000000000E+000
 -1.940000000000000E-002    0.000000000000000E+000
 -1.930000000000000E-002    0.000000000000000E+000
 -1.920000000000000E-002    0.000000000000000E+000
 -1.910000000000000E-002    0.000000000000000E+000
 -1.900000000000000E-002    0.000000000000000E+000
 -1.890000000000000E-002    0.000000000000000E+000
 -1.880000000000000E-002    0.000000000000000E+000
 -1.870000000000000E-002    0.000000000000000E+000
 -1.860000000000000E-002    0.000000000000000E+000
 -1.850000000000000E-002    0.000000000000000E+000
 -1.840000000000000E-002    0.000000000000000E+000
 -1.830000000000000E-002    0.000000000000000E+000
 -1.820000000000000E-002    0.000000000000000E+000
 -1.810000000000000E-002    0.000000000000000E+000
 -1.800000000000000E-002    0.000000000000000E+000
 -1.790000000000000E-002    0.000000000000000E+000
 -1.780000000000000E-002    0.000000000000000E+000
 -1.770000000000000E-002    0.000000000000000E+000
 -1.760000000000000E-002    0.000000000000000E+000
 -1.750000000000000E-002    0.000000000000000E+000
 -1.740000000000000E-002    0.000000000000000E+000
 -1.730000000000000E-002    0.000000000000000E+000
 -1.720000000000000E-002    0.000000000000000E+000
 -1.710000000000000E-002    0.000000000000000E+000
 -1.700000000000000E-002    0.000000000000000E+000
 -1.690000000000000E-002    0.000000000000000E+000
 -1.680000000000000E-002    0.000000000000000E+000
 -1.670000000000000E-002    0.000000000000000E+000
 -1.660000000000000E-002    0.000000000000000E+000
 -1.650000000000000E-002    0.000000000000000E+000
 -1.640000000000000E-002    0.000000000000000E+000
 -1.630000000000000E-002    0.000000000000000E+000
 -1.620000000000000E-002    0.000000000000000E+000
 -1.610000000000000E-002    0.000000000000000E+000
 -1.600000000000000E-002    0.000000000000000E+000
 -1.590000000000000E-002    0.000000000000000E+000
 -1.580000000000000E-002    0.000000000000000E+000
 -1.570000000000000E-002    0.000000000000000E+000
 -1.560000000000000E-002    0.000000000000000E+000
 -1.550000000000000E-002    0.000000000000000E+000
 -1.540000000000000E-002    0.000000000000000E+000
 -1.530000000000000E-002    0.000000000000000E+000
 -1.520000000000000E-002    0.000000000000000E+000
 -1.510000000000000E-002    0.000000000000000E+000
 -1.500000000000000E-002    0.000000000000000E+000
 -1.490000000000000E-002    0.000000000000000E+000
 -1.480000000000000E-002    0.000000000000000E+000
 -1.470000000000000E-002    0.000000000000000E+000
 -1.460000000000000E-002    0.000000000000000E+000
 -1.450000000000000E-002    0.000000000000000E+000
 -1.440000000000000E-002    0.000000000000000E+000
 -1.430000000000000E-002    0.000000000000000E+000
 -1.420000000000000E-002    0.000000000000000E+000
 -1.410000000000000E-002    0.000000000000000E+000
 -1.400000000000000E-002    0.000000000000000E+000
 -1.390000000000000E-002    0.000000000000000E+000
 -1.380000000000000E-002    0.000000000000000E+000
 -1.370000000000000E-002    0.000000000000000E+000
 -1.360000000000000E-002    0.000000000000000E+000
 -1.350000000000000E-002    0.000000000000000E+000
 -1.340000000000000E-002    0.000000000000000E+000
 -1.330000000000000E-002    0.000000000000000E+000
 -1.320000000000000E-002    0.000000000000000E+000
 -1.310000000000000E-002    0.000000000000000E+000
 -1.300000000000000E-002    0.000000000000000E+000
 -1.290000000000000E-002    0.000000000000000E+000
 -1.280000000000000E-002    0.000000000000000E+000
 -1.270000000000000E-002    0.000000000000000E+000
 -1.260000000000000E-002    0.000000000000000E+000
 -1.250000000000000E-002    0.000000000000000E+000
 -1.240000000000000E-002    0.000000000000000E+000
 -1.230000000000000E-002    0.000000000000000E+000
 -1.220000000000000E-002    0.000000000000000E+000
 -1.210000000000000E-002    0.000000000000000E+000
 -1.200000000000000E-002    0.000000000000000E+000
 -1.190000000000000E-002    0.000000000000000E+000
 -1.180000000000000E-002    0.000000000000000E+000
 -1.170000000000000E-002    0.000000000000000E+000
 -1.160000000000000E-002    0.000000000000000E+000
 -1.150000000000000E-002    0.000000000000000E+000
 -1.140000000000000E-002    0.000000000000000E+000
 -1.130000000000000E-002    0.000000000000000E+000
 -1.120000000000000E-002    0.000000000000000E+000
 -1.110000000000000E-002    0.000000000000000E+000
 -1.100000000000000E-002    0.000000000000000E+000
 -1.090000000000000E-002    0.000000000000000E+000
 -1.080000000000000E-002    0.000000000000000E+000
 -1.070000000000000E-002    0.000000000000000E+000
 -1.060000000000000E-002    0.000000000000000E+000
 -1.050000000000000E-002    0.000000000000000E+000
 -1.040000000000000E-002    0.000000000000000E+000
 -1.030000000000000E-002    0.000000000000000E+000
 -1.020000000000000E-002    0.000000000000000E+000
 -1.010000000000000E-002    0.000000000000000E+000
 -1.000000000000000E-002    0.000000000000000E+000
 -9.899999999999999E-003    0.000000000000000E+000
 -9.800000000000000E-003    0.000000000000000E+000
 -9.699999999999999E-003    0.000000000000000E+000
 -9.599999999999999E-003    0.000000000000000E+000
 -9.500000000000000E-003    0.000000000000000E+000
 -9.399999999999999E-003    0.000000000000000E+000
 -9.299999999999999E-003    0.000000000000000E+000
 -9.200000000000000E-003    0.000000000000000E+000
 -9.099999999999999E-003    0.000000000000000E+000
 -8.999999999999999E-003    0.000000000000000E+000
 -8.900000000000000E-003    0.000000000000000E+000
 -8.799999999999999E-003    0.000000000000000E+000
 -8.699999999999999E-003    0.000000000000000E+000
 -8.600000000000000E-003    0.000000000000000E+000
 -8.499999999999999E-003    0.000000000000000E+000
 -8.399999999999999E-003    0.000000000000000E+000
 -8.300000000000000E-003    0.000000000000000E+000
 -8.199999999999999E-003    0.000000000000000E+000
 -8.100000000000000E-003    0.000000000000000E+000
 -8.000000000000000E-003    0.000000000000000E+000
 -7.899999999999999E-003    0.000000000000000E+000
 -7.800000000000000E-003    0.000000000000000E+000
 -7.699999999999999E-003    0.000000000000000E+000
 -7.599999999999999E-003    0.000000000000000E+000
 -7.499999999999999E-003    0.000000000000000E+000
 -7.399999999999999E-003    0.000000000000000E+000
 -7.299999999999999E-003    0.000000000000000E+000
 -7.199999999999999E-003    0.000000000000000E+000
 -7.100000000000000E-003    0.000000000000000E+000
 -6.999999999999999E-003    0.000000000000000E+000
 -6.899999999999999E-003    0.000000000000000E+000
 -6.800000000000000E-003    0.000000000000000E+000
 -6.699999999999999E-003   -1.924390591266381E-047
 -6.599999999999999E-003   -3.848781182532762E-047
 -6.499999999999999E-003   -5.773171773799143E-047
 -6.399999999999999E-003   -7.697562365065523E-047
 -6.299999999999999E-003   -7.697562365065523E-047
 -6.199999999999999E-003   -5.773171773799143E-047
 -6.100000000000000E-003   -1.924390591266381E-047
 -5.999999999999999E-003   -8.743925279174863E-047
 -5.899999999999999E-003   -6.562949275739631E-047
 -5.800000000000000E-003   -5.131708243377016E-048
 -5.699999999999999E-003   -8.980489425909777E-047
 -5.599999999999999E-003   -1.231609978410484E-046
 -5.499999999999999E-003   -9.473638984813542E-047
 -5.399999999999999E-003   -1.434876181602171E-046
 -5.299999999999999E-003    9.747367319243583E-046
 -5.199999999999999E-003    1.573269369403837E-045
 -5.099999999999999E-003    2.027713750760080E-045
 -4.999999999999999E-003    2.634626239702450E-045
 -4.899999999999999E-003    3.210548266530218E-045
 -4.799999999999999E-003    3.700514180281421E-045
 -4.699999999999999E-003    3.602344353237576E-045
 -4.599999999999999E-003    2.400289798382935E-045
 -4.499999999999999E-003    8.494185184201121E-046
 -4.399999999999999E-003   -1.962985768744756E-045
 -4.299999999999999E-003   -5.081375808104884E-045
 -4.199999999999999E-003   -9.785985669308175E-045
 -4.099999999999999E-003   -1.431623474454205E-044
 -3.999999999999999E-003   -1.883703617258467E-044
 -3.899999999999999E-003   -2.242501190235983E-044
 -3.799999999999999E-003   -2.511822598067516E-044
 -3.699999999999999E-003   -2.383092356695693E-044
 -3.599999999999999E-003   -1.891270901847075E-044
 -3.499999999999999E-003   -8.862715910579140E-045
 -3.399999999999999E-003    7.535554939974493E-045
 -3.299999999999999E-003    3.074272281159499E-044
 -3.199999999999999E-003    6.046377489000096E-044
 -3.099999999999999E-003    9.479547751452915E-044
 -2.999999999999999E-003    1.302268858544074E-043
 -2.899999999999999E-003    1.628642340279835E-043
 -2.799999999999999E-003    1.847957005721203E-043
 -2.699999999999999E-003    1.899929407366575E-043
 -2.599999999999999E-003    1.691377496339490E-043
 -2.499999999999999E-003    1.149275974713745E-043
 -2.399999999999999E-003    1.945495700956054E-044
 -2.299999999999999E-003   -1.210783490424739E-043
 -2.199999999999999E-003   -3.061443798534544E-043
 -2.099999999999999E-003   -5.273473802590504E-043
 -1.999999999999999E-003   -7.680716289178650E-043
 -1.899999999999999E-003   -1.003018766200302E-042
 -1.799999999999999E-003   -1.195676495523005E-042
 -1.699999999999999E-003   -1.299590433137107E-042
 -1.599999999999999E-003   -1.263261310939116E-042
 -1.499999999999999E-003   -1.031369212597794E-042
 -1.399999999999999E-003   -5.546807142021523E-043
 -1.299999999999999E-003    1.993816327552412E-043
 -1.199999999999999E-003    1.242939491973301E-042
 -1.099999999999999E-003    2.547579753584501E-042
 -9.999999999999989E-004    4.037918293558304E-042
 -8.999999999999990E-004    5.582531106902593E-042
 -7.999999999999990E-004    6.986855163832383E-042
 -6.999999999999989E-004    7.999444335720192E-042
 -5.999999999999990E-004    8.318296796999247E-042
 -4.999999999999989E-004    7.619083764635118E-042
 -3.999999999999989E-004    5.590332179904133E-042
 -2.999999999999989E-004    1.974596485523891E-042
 -1.999999999999989E-004   -3.363807765559767E-042
 -9.999999999999892E-005   -1.037889785985262E-041
  1.084202172485504E-018   -1.877910879915424E-041
  1.000000000000011E-004   -2.796617253792113E-041
  2.000000000000011E-004   -3.700157235702515E-041
  3.000000000000011E-004   -4.460331189605389E-041
  4.000000000000011E-004   -4.918693709754243E-041
  5.000000000000011E-004   -4.896811633799265E-041
  6.000000000000011E-004   -4.212209623365193E-041
  7.000000000000011E-004   -2.702026554054793E-041
  8.000000000000011E-004   -2.521257338973402E-042
  9.000000000000012E-004    3.169053925422677E-041
  1.000000000000001E-003    7.475437998515010E-041
  1.100000000000001E-003    1.243064520323551E-040
  1.200000000000001E-003    1.762395697770071E-040
  1.300000000000001E-003    2.246020492612012E-040
  1.400000000000001E-003    2.617071204317581E-040
  1.500000000000001E-003    2.785147922474480E-040
  1.600000000000001E-003    2.653315052188137E-040
  1.700000000000001E-003    2.128513089105953E-040
  1.800000000000001E-003    1.135176358262958E-040
  1.900000000000001E-003   -3.685053175459411E-041
  2.000000000000001E-003   -2.372996797850395E-040
  2.100000000000001E-003   -4.800255991236295E-040
  2.200000000000001E-003   -7.489524763669506E-040
  2.300000000000001E-003   -1.018885214534304E-039
  2.400000000000001E-003   -1.255557504142127E-039
  2.500000000000001E-003   -1.416876059555911E-039
  2.600000000000001E-003   -1.455620073003251E-039
  2.700000000000001E-003   -1.323743115243941E-039
  2.800000000000001E-003   -9.782635943173387E-040
  2.900000000000001E-003   -3.885430223091092E-040
  3.000000000000001E-003    4.555442904328072E-040
  3.100000000000001E-003    1.535282558102901E-039
  3.200000000000001E-003    2.795661241047588E-039
  3.300000000000001E-003    4.140056227139225E-039
  3.400000000000001E-003    5.428441774395018E-039
  3.500000000000001E-003    6.480547588454002E-039
  3.600000000000001E-003    7.085201692258565E-039
  3.700000000000001E-003    7.016710760897137E-039
  3.800000000000001E-003    6.058521530736893E-039
  3.900000000000001E-003    4.033500994714065E-039
  4.000000000000001E-003    8.391725279958840E-040
  4.100000000000001E-003   -3.514985092493011E-039
  4.200000000000001E-003   -8.872241113536498E-039
  4.300000000000001E-003   -1.490044884579113E-038
  4.400000000000001E-003   -2.107685933394108E-038
  4.500000000000001E-003   -2.669200929088641E-038
  4.600000000000002E-003   -3.087822723783265E-038
  4.700000000000001E-003   -3.266699318650654E-038
  4.800000000000001E-003   -3.107697934157750E-038
  4.900000000000002E-003   -2.523136364341968E-038
  5.000000000000001E-003   -1.449878994701687E-038
  5.100000000000001E-003    1.352322765084469E-039
  5.200000000000001E-003    2.200132769498402E-038
  5.300000000000002E-003    4.644438233981557E-038
  5.400000000000001E-003    7.290782897295222E-038
  5.500000000000001E-003    9.883026564428264E-038
  5.600000000000002E-003    1.209362407234837E-037
  5.700000000000001E-003    1.354200608661056E-037
  5.800000000000001E-003    1.382498520732333E-037
  5.900000000000002E-003    1.255899351491905E-037
  6.000000000000001E-003    9.432439638649755E-038
  6.100000000000001E-003    4.264700407577565E-038
  6.200000000000002E-003   -2.933596463362094E-038
  6.300000000000002E-003   -1.190604294454517E-037
  6.400000000000001E-003   -2.211003767686003E-037
  6.500000000000001E-003   -3.269952498979868E-037
  6.600000000000002E-003   -4.253961374261389E-037
  6.700000000000001E-003   -5.026037106829433E-037
  6.800000000000001E-003   -5.435425608258515E-037
  6.900000000000002E-003   -5.331754118856957E-037
  7.000000000000001E-003   -4.583079410408728E-037
  7.100000000000001E-003   -3.096717764432281E-037
  7.200000000000002E-003   -8.410969157473216E-038
  7.300000000000002E-003    2.133754903242940E-037
  7.400000000000001E-003    5.679936214061891E-037
  7.500000000000001E-003    9.542731787096611E-037
  7.600000000000002E-003    1.336205402627110E-036
  7.700000000000001E-003    1.668685393751055E-036
  7.800000000000001E-003    1.900420151513740E-036
  7.900000000000001E-003    1.978335941782459E-036
  8.000000000000002E-003    1.853345441649636E-036
  8.100000000000001E-003    1.487130906066481E-036
  8.200000000000001E-003    8.593854919436149E-037
  8.300000000000002E-003   -2.523972942826962E-038
  8.400000000000001E-003   -1.131395396165987E-036
  8.500000000000002E-003   -2.389492222083387E-036
  8.600000000000002E-003   -3.695329114006173E-036
  8.700000000000001E-003   -4.913718851636741E-036
  8.800000000000002E-003   -5.886652429627178E-036
  8.900000000000002E-003   -6.446119301606274E-036
  9.000000000000001E-003   -6.431163864410809E-036
  9.100000000000002E-003   -5.708139938616087E-036
  9.200000000000002E-003   -4.192477360830717E-036
  9.300000000000001E-003   -1.869708839666965E-036
  9.400000000000002E-003    1.186944884247267E-036
  9.500000000000001E-003    4.805326747737283E-036
  9.600000000000001E-003    8.712224145758324E-036
  9.700000000000002E-003    1.254265717803366E-035
  9.800000000000001E-003    1.586198674508067E-035
  9.900000000000001E-003    1.820095608258798E-035
  1.000000000000000E-002    1.910221419401382E-035
  1.010000000000000E-002    1.817511992517411E-035
  1.020000000000000E-002    1.515390456477309E-035
  1.030000000000000E-002    9.952760321021647E-036
  1.040000000000000E-002    2.710522186299656E-036
  1.050000000000000E-002   -6.182706590432139E-036
  1.060000000000000E-002   -1.608383359976953E-035
  1.070000000000000E-002   -2.612507645625482E-035
  1.080000000000000E-002   -3.527453971840222E-035
  1.090000000000000E-002   -4.242758884032275E-035
  1.100000000000000E-002   -4.652313180403197E-035
  1.110000000000000E-002   -4.667452497566801E-035
  1.120000000000000E-002   -4.230071119012851E-035
  1.130000000000000E-002   -3.324031014269935E-035
  1.140000000000000E-002   -1.983035393414496E-035
  1.150000000000000E-002   -2.932565115392745E-036
  1.160000000000000E-002    1.610578893834803E-035
  1.170000000000000E-002    3.556283097495661E-035
  1.180000000000000E-002    5.352157330063669E-035
  1.190000000000000E-002    6.810414248899998E-035
  1.200000000000000E-002    7.773554346741369E-035
  1.210000000000000E-002    8.140134118451996E-035
  1.220000000000000E-002    7.885705774885603E-035
  1.230000000000000E-002    7.074451124933508E-035
  1.240000000000000E-002    5.857545951368056E-035
  1.250000000000000E-002    4.455380573087137E-035
  1.260000000000000E-002    3.122868872174491E-035
  1.270000000000000E-002    2.099608734420128E-035
  1.280000000000000E-002    1.549895409296532E-035
  1.290000000000000E-002    1.500524888839949E-035
  1.300000000000000E-002    1.787419879746254E-035
  1.310000000000000E-002    2.023527604881462E-035
  1.320000000000000E-002    1.601040791659898E-035
  1.330000000000000E-002   -2.610013986463462E-036
  1.340000000000000E-002   -4.416635642142615E-035
  1.350000000000000E-002   -1.164010226685715E-034
  1.360000000000000E-002   -2.242821352814023E-034
  1.370000000000000E-002   -3.677665948273241E-034
  1.380000000000000E-002   -5.395867869035775E-034
  1.390000000000000E-002   -7.234468099199973E-034
  1.400000000000000E-002   -8.930695352470523E-034
  1.410000000000000E-002   -1.012551133382592E-033
  1.420000000000000E-002   -1.038433418431514E-033
  1.430000000000000E-002   -9.237660741947529E-034
  1.440000000000000E-002   -6.242202151040539E-034
  1.450000000000000E-002   -1.060256446347911E-034
  1.460000000000000E-002    6.448494868512649E-034
  1.470000000000000E-002    1.613229966830490E-033
  1.480000000000000E-002    2.746291907149907E-033
  1.490000000000000E-002    3.947712053043502E-033
  1.500000000000000E-002    5.076141053445880E-033
  1.510000000000000E-002    5.949622688248156E-033
  1.520000000000000E-002    6.357279138203086E-033
  1.530000000000000E-002    6.078943361213009E-033
  1.540000000000000E-002    4.912526472849387E-033
  1.550000000000000E-002    2.707760733722625E-033
  1.560000000000000E-002   -5.963399138507044E-034
  1.570000000000000E-002   -4.934295001244608E-033
  1.580000000000000E-002   -1.008241158756615E-032
  1.590000000000000E-002   -1.563845805666216E-032
  1.600000000000000E-002   -2.101894585696704E-032
  1.610000000000000E-002   -2.547971762063244E-032
  1.620000000000000E-002   -2.816407755136751E-032
  1.630000000000000E-002   -2.818020792912207E-032
  1.640000000000000E-002   -2.470631770538759E-032
  1.650000000000000E-002   -1.711773473276617E-032
  1.660000000000000E-002   -5.125716066692460E-033
  1.670000000000000E-002    1.108680481700873E-032
  1.680000000000000E-002    3.075104460648279E-032
  1.690000000000000E-002    5.244064322281696E-032
  1.700000000000000E-002    7.406372723601613E-032
  1.710000000000000E-002    9.293748711342104E-032
  1.720000000000000E-002    1.059588220963597E-031
  1.730000000000000E-002    1.098756299305492E-031
  1.740000000000000E-002    1.016520894667546E-031
  1.750000000000000E-002    7.890676087113785E-032
  1.760000000000000E-002    4.038815776877392E-032
  1.770000000000000E-002   -1.356241656952795E-032
  1.780000000000000E-002   -8.062249373558932E-032
  1.790000000000000E-002   -1.562429849145935E-031
  1.800000000000000E-002   -2.336141126477959E-031
  1.810000000000000E-002   -3.039029857390668E-031
  1.820000000000000E-002   -3.568031426398118E-031
  1.830000000000000E-002   -3.814093847868104E-031
  1.840000000000000E-002   -3.673926861640652E-031
  1.850000000000000E-002   -3.064064922150071E-031
  1.860000000000000E-002   -1.936093169263751E-031
  1.870000000000000E-002   -2.914513348574990E-032