 -4.000000000000000E-002    0.000000000000000E+000
 -3.990000000000000E-002    0.000000000000000E+000
 -3.980000000000000E-002    0.000000000000000E+000
 -3.970000000000000E-002    0.000000000000000E+000
 -3.960000000000000E-002    0.000000000000000E+000
 -3.950000000000000E-002    0.000000000000000E+000
 -3.940000000000000E-002    0.000000000000000E+000
 -3.930000000000000E-002    0.000000000000000E+000
 -3.920000000000000E-002    0.000000000000000E+000
 -3.910000000000000E-002    0.000000000000000E+000
 -3.900000000000000E-002    0.000000000000000E+000
 -3.890000000000000E-002    0.000000000000000E+000
 -3.880000000000000E-002    0.000000000000000E+000
 -3.870000000000000E-002    0.000000000000000E+000
 -3.860000000000000E-002    0.000000000000000E+000
 -3.850000000000000E-002    0.000000000000000E+000
 -3.840000000000000E-002    0.000000000000000E+000
 -3.830000000000000E-002    0.000000000000000E+000
 -3.820000000000000E-002    0.000000000000000E+000
 -3.810000000000000E-002    0.000000000000000E+000
 -3.800000000000000E-002    0.000000000000000E+000
 -3.790000000000000E-002    0.000000000000000E+000
 -3.780000000000000E-002    0.000000000000000E+000
 -3.770000000000000E-002    0.000000000000000E+000
 -3.760000000000000E-002    0.000000000000000E+000
 -3.750000000000000E-002    0.000000000000000E+000
 -3.740000000000000E-002    0.000000000000000E+000
 -3.730000000000000E-002    0.000000000000000E+000
 -3.720000000000000E-002    0.000000000000000E+000
 -3.710000000000000E-002    0.000000000000000E+000
 -3.700000000000000E-002    0.000000000000000E+000
 -3.690000000000000E-002    0.000000000000000E+000
 -3.680000000000000E-002    0.000000000000000E+000
 -3.670000000000000E-002    0.000000000000000E+000
 -3.660000000000000E-002    0.000000000000000E+000
 -3.650000000000000E-002    0.000000000000000E+000
 -3.640000000000000E-002    0.000000000000000E+000
 -3.630000000000000E-002    0.000000000000000E+000
 -3.620000000000000E-002    0.000000000000000E+000
 -3.610000000000000E-002    0.000000000000000E+000
 -3.600000000000000E-002    0.000000000000000E+000
 -3.590000000000000E-002    0.000000000000000E+000
 -3.580000000000000E-002    0.000000000000000E+000
 -3.570000000000000E-002    0.000000000000000E+000
 -3.560000000000000E-002    0.000000000000000E+000
 -3.550000000000000E-002    0.000000000000000E+000
 -3.540000000000000E-002    0.000000000000000E+000
 -3.530000000000000E-002    0.000000000000000E+000
 -3.520000000000000E-002    0.000000000000000E+000
 -3.510000000000000E-002    0.000000000000000E+000
 -3.500000000000000E-002    0.000000000000000E+000
 -3.490000000000000E-002    0.000000000000000E+000
 -3.480000000000000E-002    0.000000000000000E+000
 -3.470000000000000E-002    0.000000000000000E+000
 -3.460000000000000E-002    0.000000000000000E+000
 -3.450000000000000E-002    0.000000000000000E+000
 -3.440000000000000E-002    0.000000000000000E+000
 -3.430000000000000E-002    0.000000000000000E+000
 -3.420000000000000E-002    0.000000000000000E+000
 -3.410000000000000E-002    0.000000000000000E+000
 -3.400000000000000E-002    0.000000000000000E+000
 -3.390000000000000E-002    0.000000000000000E+000
 -3.380000000000000E-002    0.000000000000000E+000
 -3.370000000000000E-002    0.000000000000000E+000
 -3.360000000000000E-002    0.000000000000000E+000
 -3.350000000000000E-002    0.000000000000000E+000
 -3.340000000000000E-002    0.000000000000000E+000
 -3.330000000000000E-002    0.000000000000000E+000
 -3.320000000000000E-002    0.000000000000000E+000
 -3.310000000000000E-002    0.000000000000000E+000
 -3.300000000000000E-002    0.000000000000000E+000
 -3.290000000000000E-002    0.000000000000000E+000
 -3.280000000000000E-002    0.000000000000000E+000
 -3.270000000000000E-002    0.000000000000000E+000
 -3.260000000000000E-002    0.000000000000000E+000
 -3.250000000000000E-002    0.000000000000000E+000
 -3.240000000000000E-002    0.000000000000000E+000
 -3.230000000000000E-002    0.000000000000000E+000
 -3.220000000000000E-002    0.000000000000000E+000
 -3.210000000000000E-002    0.000000000000000E+000
 -3.200000000000000E-002    0.000000000000000E+000
 -3.190000000000000E-002    0.000000000000000E+000
 -3.180000000000000E-002    0.000000000000000E+000
 -3.170000000000000E-002    0.000000000000000E+000
 -3.160000000000000E-002    0.000000000000000E+000
 -3.150000000000000E-002    0.000000000000000E+000
 -3.140000000000000E-002    0.000000000000000E+000
 -3.130000000000000E-002    0.000000000000000E+000
 -3.120000000000000E-002    0.000000000000000E+000
 -3.110000000000000E-002    0.000000000000000E+000
 -3.100000000000000E-002    0.000000000000000E+000
 -3.090000000000000E-002    0.000000000000000E+000
 -3.080000000000000E-002    0.000000000000000E+000
 -3.070000000000000E-002    0.000000000000000E+000
 -3.060000000000000E-002    0.000000000000000E+000
 -3.050000000000000E-002    0.000000000000000E+000
 -3.040000000000000E-002    0.000000000000000E+000
 -3.030000000000000E-002    0.000000000000000E+000
 -3.020000000000000E-002    0.000000000000000E+000
 -3.010000000000000E-002    0.000000000000000E+000
 -3.000000000000000E-002    0.000000000000000E+000
 -2.990000000000000E-002    0.000000000000000E+000
 -2.980000000000000E-002    0.000000000000000E+000
 -2.970000000000000E-002    0.000000000000000E+000
 -2.960000000000000E-002    0.000000000000000E+000
 -2.950000000000000E-002    0.000000000000000E+000
 -2.940000000000000E-002    0.000000000000000E+000
 -2.930000000000000E-002    0.000000000000000E+000
 -2.920000000000000E-002    0.000000000000000E+000
 -2.910000000000000E-002    0.000000000000000E+000
 -2.900000000000000E-002    0.000000000000000E+000
 -2.890000000000000E-002    0.000000000000000E+000
 -2.880000000000000E-002    0.000000000000000E+000
 -2.870000000000000E-002    0.000000000000000E+000
 -2.860000000000000E-002    0.000000000000000E+000
 -2.850000000000000E-002    0.000000000000000E+000
 -2.840000000000000E-002    0.000000000000000E+000
 -2.830000000000000E-002    0.000000000000000E+000
 -2.820000000000000E-002    0.000000000000000E+000
 -2.810000000000000E-002    0.000000000000000E+000
 -2.800000000000000E-002    0.000000000000000E+000
 -2.790000000000000E-002    0.000000000000000E+000
 -2.780000000000000E-002    0.000000000000000E+000
 -2.770000000000000E-002    0.000000000000000E+000
 -2.760000000000000E-002    0.000000000000000E+000
 -2.750000000000000E-002    0.000000000000000E+000
 -2.740000000000000E-002    0.000000000000000E+000
 -2.730000000000000E-002    0.000000000000000E+000
 -2.720000000000000E-002    0.000000000000000E+000
 -2.710000000000000E-002    0.000000000000000E+000
 -2.700000000000000E-002    0.000000000000000E+000
 -2.690000000000000E-002    0.000000000000000E+000
 -2.680000000000000E-002    0.000000000000000E+000
 -2.670000000000000E-002    0.000000000000000E+000
 -2.660000000000000E-002    0.000000000000000E+000
 -2.650000000000000E-002    0.000000000000000E+000
 -2.640000000000000E-002    0.000000000000000E+000
 -2.630000000000000E-002    0.000000000000000E+000
 -2.620000000000000E-002    0.000000000000000E+000
 -2.610000000000000E-002    0.000000000000000E+000
 -2.600000000000000E-002    0.000000000000000E+000
 -2.590000000000000E-002    0.000000000000000E+000
 -2.580000000000000E-002    0.000000000000000E+000
 -2.570000000000000E-002    0.000000000000000E+000
 -2.560000000000000E-002    0.000000000000000E+000
 -2.550000000000000E-002    0.000000000000000E+000
 -2.540000000000000E-002    0.000000000000000E+000
 -2.530000000000000E-002    0.000000000000000E+000
 -2.520000000000000E-002    0.000000000000000E+000
 -2.510000000000000E-002    0.000000000000000E+000
 -2.500000000000000E-002    0.000000000000000E+000
 -2.490000000000000E-002    0.000000000000000E+000
 -2.480000000000000E-002    0.000000000000000E+000
 -2.470000000000000E-002    0.000000000000000E+000
 -2.460000000000000E-002    0.000000000000000E+000
 -2.450000000000000E-002    0.000000000000000E+000
 -2.440000000000000E-002    0.000000000000000E+000
 -2.430000000000000E-002    0.000000000000000E+000
 -2.420000000000000E-002    0.000000000000000E+000
 -2.410000000000000E-002    0.000000000000000E+000
 -2.400000000000000E-002    0.000000000000000E+000
 -2.390000000000000E-002    0.000000000000000E+000
 -2.380000000000000E-002    0.000000000000000E+000
 -2.370000000000000E-002    0.000000000000000E+000
 -2.360000000000000E-002    0.000000000000000E+000
 -2.350000000000000E-002    0.000000000000000E+000
 -2.340000000000000E-002    0.000000000000000E+000
 -2.330000000000000E-002    0.000000000000000E+000
 -2.320000000000000E-002    0.000000000000000E+000
 -2.310000000000000E-002    0.000000000000000E+000
 -2.300000000000000E-002    0.000000000000000E+000
 -2.290000000000000E-002    0.000000000000000E+000
 -2.280000000000000E-002    0.000000000000000E+000
 -2.270000000000000E-002    0.000000000000000E+000
 -2.260000000000000E-002    0.000000000000000E+000
 -2.250000000000000E-002    0.000000000000000E+000
 -2.240000000000000E-002    0.000000000000000E+000
 -2.230000000000000E-002    0.000000000000000E+000
 -2.220000000000000E-002    0.000000000000000E+000
 -2.210000000000000E-002    0.000000000000000E+000
 -2.200000000000000E-002    0.000000000000000E+000
 -2.190000000000000E-002    0.000000000000000E+000
 -2.180000000000000E-002    0.000000000000000E+000
 -2.170000000000000E-002    0.000000000000000E+000
 -2.160000000000000E-002    0.000000000000000E+000
 -2.150000000000000E-002    0.000000000000000E+000
 -2.140000000000000E-002    0.000000000000000E+000
 -2.130000000000000E-002    0.000000000000000E+000
 -2.120000000000000E-002    0.000000000000000E+000
 -2.110000000000000E-002    0.000000000000000E+000
 -2.100000000000000E-002    0.000000000000000E+000
 -2.090000000000000E-002    0.000000000000000E+000
 -2.080000000000000E-002    0.000000000000000E+000
 -2.070000000000000E-002    0.000000000000000E+000
 -2.060000000000000E-002    0.000000000000000E+000
 -2.050000000000000E-002    0.000000000000000E+000
 -2.040000000000000E-002    0.000000000000000E+000
 -2.030000000000000E-002    0.000000000000000E+000
 -2.020000000000000E-002    0.000000000000000E+000
 -2.010000000000000E-002    0.000000000000000E+000
 -2.000000000000000E-002    0.000000000000000E+000
 -1.990000000000000E-002    0.000000000000000E+000
 -1.980000000000000E-002    0.000000000000000E+000
 -1.970000000000000E-002    0.000000000000000E+000
 -1.960000000000000E-002    0.000000000000000E+000
 -1.950000000000000E-002    0.000000000000000E+000
 -1.940000000000000E-002    0.000000000000000E+000
 -1.930000000000000E-002    0.000000000000000E+000
 -1.920000000000000E-002    0.000000000000000E+000
 -1.910000000000000E-002    0.000000000000000E+000
 -1.900000000000000E-002    0.000000000000000E+000
 -1.890000000000000E-002    0.000000000000000E+000
 -1.880000000000000E-002    0.000000000000000E+000
 -1.870000000000000E-002    0.000000000000000E+000
 -1.860000000000000E-002    0.000000000000000E+000
 -1.850000000000000E-002    0.000000000000000E+000
 -1.840000000000000E-002    0.000000000000000E+000
 -1.830000000000000E-002    0.000000000000000E+000
 -1.820000000000000E-002    0.000000000000000E+000
 -1.810000000000000E-002    0.000000000000000E+000
 -1.800000000000000E-002    0.000000000000000E+000
 -1.790000000000000E-002    0.000000000000000E+000
 -1.780000000000000E-002    0.000000000000000E+000
 -1.770000000000000E-002    0.000000000000000E+000
 -1.760000000000000E-002    0.000000000000000E+000
 -1.750000000000000E-002    0.000000000000000E+000
 -1.740000000000000E-002    0.000000000000000E+000
 -1.730000000000000E-002    0.000000000000000E+000
 -1.720000000000000E-002    0.000000000000000E+000
 -1.710000000000000E-002    0.000000000000000E+000
 -1.700000000000000E-002    0.000000000000000E+000
 -1.690000000000000E-002    0.000000000000000E+000
 -1.680000000000000E-002    0.000000000000000E+000
 -1.670000000000000E-002    0.000000000000000E+000
 -1.660000000000000E-002    0.000000000000000E+000
 -1.650000000000000E-002    0.000000000000000E+000
 -1.640000000000000E-002    0.000000000000000E+000
 -1.630000000000000E-002    0.000000000000000E+000
 -1.620000000000000E-002    0.000000000000000E+000
 -1.610000000000000E-002    0.000000000000000E+000
 -1.600000000000000E-002    0.000000000000000E+000
 -1.590000000000000E-002    0.000000000000000E+000
 -1.580000000000000E-002    0.000000000000000E+000
 -1.570000000000000E-002    0.000000000000000E+000
 -1.560000000000000E-002    0.000000000000000E+000
 -1.550000000000000E-002    0.000000000000000E+000
 -1.540000000000000E-002    0.000000000000000E+000
 -1.530000000000000E-002    0.000000000000000E+000
 -1.520000000000000E-002    0.000000000000000E+000
 -1.510000000000000E-002    0.000000000000000E+000
 -1.500000000000000E-002    0.000000000000000E+000
 -1.490000000000000E-002    0.000000000000000E+000
 -1.480000000000000E-002    0.000000000000000E+000
 -1.470000000000000E-002    0.000000000000000E+000
 -1.460000000000000E-002    0.000000000000000E+000
 -1.450000000000000E-002    0.000000000000000E+000
 -1.440000000000000E-002    0.000000000000000E+000
 -1.430000000000000E-002    0.000000000000000E+000
 -1.420000000000000E-002    0.000000000000000E+000
 -1.410000000000000E-002    0.000000000000000E+000
 -1.400000000000000E-002    0.000000000000000E+000
 -1.390000000000000E-002    0.000000000000000E+000
 -1.380000000000000E-002    0.000000000000000E+000
 -1.370000000000000E-002    0.000000000000000E+000
 -1.360000000000000E-002    0.000000000000000E+000
 -1.350000000000000E-002    0.000000000000000E+000
 -1.340000000000000E-002    0.000000000000000E+000
 -1.330000000000000E-002    0.000000000000000E+000
 -1.320000000000000E-002    0.000000000000000E+000
 -1.310000000000000E-002    0.000000000000000E+000
 -1.300000000000000E-002    0.000000000000000E+000
 -1.290000000000000E-002    0.000000000000000E+000
 -1.280000000000000E-002    0.000000000000000E+000
 -1.270000000000000E-002    0.000000000000000E+000
 -1.260000000000000E-002    0.000000000000000E+000
 -1.250000000000000E-002    0.000000000000000E+000
 -1.240000000000000E-002    0.000000000000000E+000
 -1.230000000000000E-002    0.000000000000000E+000
 -1.220000000000000E-002    0.000000000000000E+000
 -1.210000000000000E-002    0.000000000000000E+000
 -1.200000000000000E-002    0.000000000000000E+000
 -1.190000000000000E-002    0.000000000000000E+000
 -1.180000000000000E-002    0.000000000000000E+000
 -1.170000000000000E-002    0.000000000000000E+000
 -1.160000000000000E-002    0.000000000000000E+000
 -1.150000000000000E-002    0.000000000000000E+000
 -1.140000000000000E-002    0.000000000000000E+000
 -1.130000000000000E-002    0.000000000000000E+000
 -1.120000000000000E-002    0.000000000000000E+000
 -1.110000000000000E-002    0.000000000000000E+000
 -1.100000000000000E-002    0.000000000000000E+000
 -1.090000000000000E-002    0.000000000000000E+000
 -1.080000000000000E-002    0.000000000000000E+000
 -1.070000000000000E-002    6.414635304221270E-048
 -1.060000000000000E-002    1.282927060844254E-047
 -1.050000000000000E-002    2.138211768073757E-047
 -1.040000000000000E-002    7.832528826294594E-047
 -1.030000000000000E-002    7.832528826294594E-047
 -1.020000000000000E-002    7.832528826294594E-047
 -1.010000000000000E-002    7.191065295872467E-047
 -1.000000000000000E-002    5.694317058220838E-047
 -9.899999999999999E-003   -2.138211768073757E-047
 -9.800000000000000E-003   -1.609270000620394E-046
 -9.699999999999999E-003   -3.403093588809596E-046
 -9.599999999999999E-003   -5.218299294679535E-046
 -9.500000000000000E-003   -7.517408235648607E-046
 -9.399999999999999E-003   -9.666842352852517E-046
 -9.299999999999999E-003   -1.105440570510771E-045
 -9.200000000000000E-003   -1.168009829241417E-045
 -9.099999999999999E-003   -1.001750908281661E-045
 -8.999999999999999E-003   -3.753760369721518E-046
 -8.900000000000000E-003    4.937389990427076E-046
 -8.799999999999999E-003    1.502332179887422E-045
 -8.699999999999999E-003    2.778535519498589E-045
 -8.600000000000000E-003    4.213888552205889E-045
 -8.499999999999999E-003    5.854937557001885E-045
 -8.399999999999999E-003    7.301008865594491E-045
 -8.300000000000000E-003    8.199324758391254E-045
 -8.199999999999999E-003    7.771069473541476E-045
 -8.100000000000000E-003    7.235042355242218E-045
 -8.000000000000000E-003    4.859114620718752E-045
 -7.899999999999999E-003    1.889334085372088E-045
 -7.800000000000000E-003   -4.057568723887802E-045
 -7.699999999999999E-003   -1.171912946195008E-044
 -7.599999999999999E-003   -2.066174600438911E-044
 -7.499999999999999E-003   -3.041321618636783E-044
 -7.399999999999999E-003   -3.951772897294911E-044
 -7.299999999999999E-003   -4.686275373436748E-044
 -7.199999999999999E-003   -4.964426940042211E-044
 -7.100000000000000E-003   -4.632570128817638E-044
 -6.999999999999999E-003   -3.461121321699348E-044
 -6.899999999999999E-003   -1.241905711287058E-044
 -6.800000000000000E-003    2.207048009822826E-044
 -6.699999999999999E-003    6.704148582969647E-044
 -6.599999999999999E-003    1.210994478515369E-043
 -6.499999999999999E-003    1.798555170924201E-043
 -6.399999999999999E-003    2.359526487895584E-043
 -6.299999999999999E-003    2.801923684009763E-043
 -6.199999999999999E-003    2.982783859303399E-043
 -6.100000000000000E-003    2.780813471727594E-043
 -5.999999999999999E-003    2.069277331168671E-043
 -5.899999999999999E-003    7.284189529398193E-044
 -5.800000000000000E-003   -1.307680916821246E-043
 -5.699999999999999E-003   -4.011315138975967E-043
 -5.599999999999999E-003   -7.248629060936527E-043
 -5.499999999999999E-003   -1.074831759796810E-042
 -5.399999999999999E-003   -1.409588940765622E-042
 -5.299999999999999E-003   -1.671087156419335E-042
 -5.199999999999999E-003   -1.789336139279453E-042
 -5.099999999999999E-003   -1.685957849504718E-042
 -4.999999999999999E-003   -1.285179491300664E-042
 -4.899999999999999E-003   -5.240656942717391E-043
 -4.799999999999999E-003    6.304892590161829E-043
 -4.699999999999999E-003    2.167026817376593E-042
 -4.599999999999999E-003    4.012286057165216E-042
 -4.499999999999999E-003    6.016562730430089E-042
 -4.399999999999999E-003    7.946883332630509E-042
 -4.299999999999999E-003    9.486415988348382E-042
 -4.199999999999999E-003    1.025033647057491E-041
 -4.099999999999999E-003    9.814382370258665E-042
 -3.999999999999999E-003    7.764661309637039E-042
 -3.899999999999999E-003    3.757310113825312E-042
 -3.799999999999999E-003   -2.398078730095730E-042
 -3.699999999999999E-003   -1.065264619713217E-041
 -3.599999999999999E-003   -2.063337960124551E-041
 -3.499999999999999E-003   -3.157038962421432E-041
 -3.399999999999999E-003   -4.225633735046273E-041
 -3.299999999999999E-003   -5.105601608029635E-041
 -3.199999999999999E-003   -5.597600243250951E-041
 -3.099999999999999E-003   -5.481595752477160E-041
 -2.999999999999999E-003   -4.541048540344103E-041
 -2.899999999999999E-003   -2.595097184811537E-041
 -2.799999999999999E-003    4.622959708391177E-042
 -2.699999999999999E-003    4.618971435204177E-041
 -2.599999999999999E-003    9.702454486799018E-041
 -2.499999999999999E-003    1.534529239921714E-040
 -2.399999999999999E-003    2.096453600974503E-040
 -2.299999999999999E-003    2.576569248339329E-040
 -2.199999999999999E-003    2.877684555035682E-040
 -2.099999999999999E-003    2.892119196974548E-040
 -1.999999999999999E-003    2.512937082215466E-040
 -1.899999999999999E-003    1.649228768808461E-040
 -1.799999999999999E-003    2.444710083955315E-041
 -1.699999999999999E-003   -1.703331709764792E-040
 -1.599999999999999E-003   -4.122028213259379E-040
 -1.499999999999999E-003   -6.849119817808524E-040
 -1.399999999999999E-003   -9.622472027684447E-040
 -1.299999999999999E-003   -1.208159553659163E-039
 -1.199999999999999E-003   -1.378296159220235E-039
 -1.099999999999999E-003   -1.423206088003831E-039
 -9.999999999999989E-004   -1.293341060182054E-039
 -8.999999999999990E-004   -9.457816981562168E-040
 -7.999999999999990E-004   -3.523274287061628E-040
 -6.999999999999989E-004    4.916962009808487E-040
 -5.999999999999990E-004    1.558886352936297E-039
 -4.999999999999989E-004    2.782735321932596E-039
 -3.999999999999989E-004    4.053578685434918E-039
 -2.999999999999989E-004    5.219068493378814E-039
 -1.999999999999989E-004    6.090578007636029E-039
 -9.999999999999892E-005    6.456597534936455E-039
  1.084202172485504E-018    6.103564149885151E-039
  1.000000000000011E-004    4.843682877816997E-039
  2.000000000000011E-004    2.548202767750424E-039
  3.000000000000011E-004   -8.166174771027680E-040
  4.000000000000011E-004   -5.154886916212848E-039
  5.000000000000011E-004   -1.021288532061697E-038
  6.000000000000011E-004   -1.556313717123203E-038
  7.000000000000011E-004   -2.060669744972413E-038
  8.000000000000011E-004   -2.459900775513037E-038
  9.000000000000012E-004   -2.670308071146240E-038
  1.000000000000001E-003   -2.607124166954612E-038
  1.100000000000001E-003   -2.195312072150559E-038
  1.200000000000001E-003   -1.382333870378901E-038
  1.300000000000001E-003   -1.517680302053672E-039
  1.400000000000001E-003    1.463800806032817E-038
  1.500000000000001E-003    3.372562431569430E-038
  1.600000000000001E-003    5.418098404309356E-038
  1.700000000000001E-003    7.380979239169494E-038
  1.800000000000001E-003    8.989169914026705E-038
  1.900000000000001E-003    9.938412179707166E-038
  2.000000000000001E-003    9.922736873036340E-038
  2.100000000000001E-003    8.673912862815752E-038
  2.200000000000001E-003    6.007092077258673E-038
  2.300000000000001E-003    1.868263212165514E-038
  2.400000000000001E-003   -3.622379974948465E-038
  2.500000000000001E-003   -1.013817150359865E-037
  2.600000000000001E-003   -1.713229230155631E-037
  2.700000000000001E-003   -2.384974783919784E-037
  2.800000000000001E-003   -2.937052255811098E-037
  2.900000000000001E-003   -3.268668940798317E-037
  3.000000000000001E-003   -3.281236094440799E-037
  3.100000000000001E-003   -2.892041919339046E-037
  3.200000000000001E-003   -2.049463571604820E-037
  3.300000000000001E-003   -7.480358359456161E-038
  3.400000000000001E-003    9.587498670934277E-038
  3.500000000000001E-003    2.950322851048345E-037
  3.600000000000001E-003    5.038000848513360E-037
  3.700000000000001E-003    6.973143091749718E-037
  3.800000000000001E-003    8.465853141887402E-037
  3.900000000000001E-003    9.214474010119552E-037
  4.000000000000001E-003    8.944651128693392E-037
  4.100000000000001E-003    7.454993299476651E-037
  4.200000000000001E-003    4.664589794544280E-037
  4.300000000000001E-003    6.560126937511876E-038
  4.400000000000001E-003   -4.293726152459815E-037
  4.500000000000001E-003   -9.702179867973349E-037
  4.600000000000002E-003   -1.489768573287655E-036
  4.700000000000001E-003   -1.906820039984279E-036
  4.800000000000001E-003   -2.134479618503007E-036
  4.900000000000002E-003   -2.091742672082834E-036
  5.000000000000001E-003   -1.717500563869704E-036
  5.100000000000001E-003   -9.855877927337197E-037
  5.200000000000001E-003    8.109312851596783E-038
  5.300000000000002E-003    1.399781822190097E-036
  5.400000000000001E-003    2.823046686040617E-036
  5.500000000000001E-003    4.142490292678775E-036
  5.600000000000002E-003    5.103024971934704E-036
  5.700000000000001E-003    5.428797594012588E-036
  5.800000000000001E-003    4.860448009505405E-036
  5.900000000000002E-003    3.201577369490015E-036
  6.000000000000001E-003    3.702640456767725E-037
  6.100000000000001E-003   -3.550569735629514E-036
  6.200000000000002E-003   -8.271932081985292E-036
  6.300000000000002E-003   -1.327579530395206E-035
  6.400000000000001E-003   -1.781968882384960E-035
  6.500000000000001E-003   -2.097698895961371E-035
  6.600000000000002E-003   -2.171836818962850E-035
  6.700000000000001E-003   -1.903555096301176E-035
  6.800000000000001E-003   -1.210267986965214E-035
  6.900000000000002E-003   -4.636506151905764E-037
  7.000000000000001E-003    1.577370253257991E-035
  7.100000000000001E-003    3.576266722848082E-035
  7.200000000000002E-003    5.779360033475891E-035
  7.300000000000002E-003    7.925498344916793E-035
  7.400000000000001E-003    9.671244235224692E-035
  7.500000000000001E-003    1.061322522732435E-034
  7.600000000000002E-003    1.032635078490996E-034
  7.700000000000001E-003    8.417539555160751E-035
  7.800000000000001E-003    4.592299606893430E-035
  7.900000000000001E-003   -1.271098176913791E-035
  8.000000000000002E-003   -9.047813880138239E-035
  8.100000000000001E-003   -1.830335329259451E-034
  8.200000000000001E-003   -2.825326769236973E-034
  8.300000000000002E-003   -3.775824661437407E-034
  8.400000000000001E-003   -4.536626696129948E-034
  8.500000000000002E-003   -4.941054147358367E-034
  8.600000000000002E-003   -4.816712554231243E-034
  8.700000000000001E-003   -4.006914504972421E-034
  8.800000000000002E-003   -2.396606858311967E-034
  8.900000000000002E-003    5.930147660771280E-036
  9.000000000000001E-003    3.308268975455886E-034
  9.100000000000002E-003    7.176962834694659E-034
  9.200000000000002E-003    1.135703983161589E-033
  9.300000000000001E-003    1.540436647426727E-033
  9.400000000000002E-003    1.875576740039287E-033
  9.500000000000001E-003    2.076624472099927E-033
  9.600000000000001E-003    2.076781375122948E-033
  9.700000000000002E-003    1.814858951262585E-033
  9.800000000000001E-003    1.244777789473497E-033
  9.900000000000001E-003    3.458858520178745E-034
  1.000000000000000E-002   -8.669901546089328E-034
  1.010000000000000E-002   -2.335126701602673E-033
  1.020000000000000E-002   -3.950654619830419E-033
  1.030000000000000E-002   -5.556040386842897E-033
  1.040000000000000E-002   -6.949688704105253E-033
  1.050000000000000E-002   -7.898666989419358E-033
  1.060000000000000E-002   -8.158914967001668E-033
  1.070000000000000E-002   -7.502470295355670E-033
  1.080000000000000E-002   -5.750212840185826E-033
  1.090000000000000E-002   -2.807539487531666E-033
  1.100000000000000E-002    1.300689097340532E-033
  1.110000000000000E-002    6.400475581019745E-033
  1.120000000000000E-002    1.214940200426201E-032
  1.130000000000000E-002    1.803288972190303E-032
  1.140000000000000E-002    2.338061440009477E-032
  1.150000000000000E-002    2.740638856461848E-032
  1.160000000000000E-002    2.927277817112384E-032
  1.170000000000000E-002    2.817901107373291E-032
  1.180000000000000E-002    2.346747290622955E-032
  1.190000000000000E-002    1.474057689280634E-032
  1.200000000000000E-002    1.976445559603990E-033
  1.210000000000000E-002   -1.437103558103895E-032
  1.220000000000000E-002   -3.330392662743015E-032
  1.230000000000000E-002   -5.326010239444572E-032
  1.240000000000000E-002   -7.215587437141333E-032
  1.250000000000000E-002   -8.750209923002421E-032
  1.260000000000000E-002   -9.659810752001665E-032
  1.270000000000000E-002   -9.679952021185193E-032
  1.280000000000000E-002   -8.584609156323203E-032
  1.290000000000000E-002   -6.222497592272241E-032
  1.300000000000000E-002   -2.553457366956326E-032
  1.310000000000000E-002    2.319445767655504E-032
  1.320000000000000E-002    8.127000828181606E-032
  1.330000000000000E-002    1.442504984375043E-031
  1.340000000000000E-002    2.060428963325599E-031
  1.350000000000000E-002    2.592196557770868E-031
  1.360000000000000E-002    2.955691282803974E-031
  1.370000000000000E-002    3.068697517098829E-031
  1.380000000000000E-002    2.858491311607950E-031
  1.390000000000000E-002    2.272578763021270E-031
  1.400000000000000E-002    1.289581878024254E-031
  1.410000000000000E-002   -7.098254483899775E-033
  1.420000000000000E-002   -1.741440397637627E-031
  1.430000000000000E-002   -3.602656333449379E-031
  1.440000000000000E-002   -5.485985281669166E-031
  1.450000000000000E-002   -7.181458944700109E-031
  1.460000000000000E-002   -8.452667390965135E-031
  1.470000000000000E-002   -9.058107288439651E-031
  1.480000000000000E-002   -8.777960310720956E-031
  1.490000000000000E-002   -7.444378812520032E-031
  1.500000000000000E-002   -4.972529522160771E-031
  1.510000000000000E-002   -1.388917811292249E-031
  1.520000000000000E-002    3.146907754342483E-031
  1.530000000000000E-002    8.331282056692882E-031
  1.540000000000000E-002    1.371961039546223E-030
  1.550000000000000E-002    1.874656895025406E-030
  1.560000000000000E-002    2.276469732580036E-030
  1.570000000000000E-002    2.510086856116891E-030
  1.580000000000000E-002    2.512795337930184E-030
  1.590000000000000E-002    2.234662417438474E-030
  1.600000000000000E-002    1.646996125734176E-030
  1.610000000000000E-002    7.501648077331301E-031
  1.620000000000000E-002   -4.202699568255545E-031
  1.630000000000000E-002   -1.790171839072790E-030
  1.640000000000000E-002   -3.247179194357778E-030
  1.650000000000000E-002   -4.645522676668727E-030
  1.660000000000000E-002   -5.815693670377733E-030
  1.670000000000000E-002   -6.578852381242796E-030
  1.680000000000000E-002   -6.765299714715252E-030
  1.690000000000000E-002   -6.235713297417268E-030
  1.700000000000000E-002   -4.903265363368339E-030
  1.710000000000000E-002   -2.754248046024608E-030
  1.720000000000000E-002    1.354798150381459E-031
  1.730000000000000E-002    3.590968896326176E-030
  1.740000000000000E-002    7.338091069805074E-030
  1.750000000000000E-002    1.101479616495534E-029
  1.760000000000000E-002    1.419469426077467E-029
  1.770000000000000E-002    1.642273362751564E-029
  1.780000000000000E-002    1.726125997732859E-029
  1.790000000000000E-002    1.634323062955751E-029
  1.800000000000000E-002    1.342786848337579E-029
  1.810000000000000E-002    8.452825459496551E-030
  1.820000000000000E-002    1.576170668924316E-030
  1.830000000000000E-002   -6.798636383453590E-030
  1.840000000000000E-002   -1.602096415623462E-029
  1.850000000000000E-002   -2.521918044108372E-029
  1.860000000000000E-002   -3.335714151991674E-029
  1.870000000000000E-002   -3.932041407702719E-029