 -4.000000000000000E-002    0.000000000000000E+000
 -3.990000000000000E-002    0.000000000000000E+000
 -3.980000000000000E-002    0.000000000000000E+000
 -3.970000000000000E-002    0.000000000000000E+000
 -3.960000000000000E-002    0.000000000000000E+000
 -3.950000000000000E-002    0.000000000000000E+000
 -3.940000000000000E-002    0.000000000000000E+000
 -3.930000000000000E-002    0.000000000000000E+000
 -3.920000000000000E-002    0.000000000000000E+000
 -3.910000000000000E-002    0.000000000000000E+000
 -3.900000000000000E-002   -5.844737676722807E-036
 -3.890000000000000E-002   -1.125151437394872E-034
 -3.880000000000000E-002   -1.119290003258927E-033
 -3.870000000000000E-002   -7.639491096176553E-033
 -3.860000000000000E-002   -4.005294463055060E-032
 -3.850000000000000E-002   -1.710479177918324E-031
 -3.840000000000000E-002   -6.149867946401412E-031
 -3.830000000000000E-002   -1.893451271171215E-030
 -3.820000000000000E-002   -5.004247930778520E-030
 -3.810000000000000E-002   -1.113844975440397E-029
 -3.800000000000000E-002   -1.939642314842036E-029
 -3.790000000000000E-002   -1.835404178284536E-029
 -3.780000000000000E-002    3.804642061486620E-029
 -3.770000000000000E-002    2.896436217230217E-028
 -3.760000000000000E-002    1.099674141944548E-027
 -3.750000000000000E-002    3.312706201695874E-027
 -3.740000000000000E-002    8.725067240221330E-027
 -3.730000000000000E-002    2.087024957604252E-026
 -3.720000000000000E-002    4.620951984052706E-026
 -3.710000000000000E-002    9.573315778417294E-026
 -3.700000000000000E-002    1.867508421745289E-025
 -3.690000000000000E-002    3.441992436829398E-025
 -3.680000000000000E-002    6.000112196694944E-025
 -3.670000000000000E-002    9.879098536152177E-025
 -3.660000000000000E-002    1.529392040041093E-024
 -3.650000000000000E-002    2.204826799716520E-024
 -3.640000000000000E-002    2.901948241922863E-024
 -3.630000000000000E-002    3.333408609050064E-024
 -3.620000000000000E-002    2.916866456469709E-024
 -3.610000000000000E-002    6.171066896981629E-025
 -3.600000000000000E-002   -5.237559089097430E-024
 -3.590000000000000E-002   -1.713080696437091E-023
 -3.580000000000000E-002   -3.845994286571086E-023
 -3.570000000000000E-002   -7.345472113695197E-023
 -3.560000000000000E-002   -1.267553836215827E-022
 -3.550000000000000E-002   -2.024431648750907E-022
 -3.540000000000000E-002   -3.022836971134484E-022
 -3.530000000000000E-002   -4.229500744014020E-022
 -3.520000000000000E-002   -5.520659148167175E-022
 -3.510000000000000E-002   -6.630820771660603E-022
 -3.500000000000000E-002   -7.093117755334369E-022
 -3.490000000000000E-002   -6.179104020234755E-022
 -3.480000000000000E-002   -2.852135209946209E-022
 -3.470000000000000E-002    4.244090242474609E-022
 -3.460000000000000E-002    1.673259290030695E-021
 -3.450000000000000E-002    3.635016194901498E-021
 -3.440000000000000E-002    6.465584237683914E-021
 -3.430000000000000E-002    1.025660554340655E-020
 -3.420000000000000E-002    1.496952825594925E-020
 -3.410000000000000E-002    2.035078050245580E-020
 -3.400000000000000E-002    2.583285180147173E-020
 -3.390000000000000E-002    3.043180420882258E-020
 -3.380000000000000E-002    3.265904412614764E-020
 -3.370000000000000E-002    3.047269870041530E-020
 -3.360000000000000E-002    2.130178069602141E-020
 -3.350000000000000E-002    2.180700326734624E-021
 -3.340000000000000E-002   -2.996665987107580E-020
 -3.330000000000000E-002   -7.786070970398104E-020
 -3.320000000000000E-002   -1.432001075622072E-019
 -3.310000000000000E-002   -2.258037901619726E-019
 -3.300000000000000E-002   -3.226075470053103E-019
 -3.290000000000000E-002   -4.266092095825140E-019
 -3.280000000000000E-002   -5.259115371379595E-019
 -3.270000000000000E-002   -6.030693648698271E-019
 -3.260000000000000E-002   -6.349912929416119E-019
 -3.250000000000000E-002   -5.936767920550471E-019
 -3.240000000000000E-002   -4.480564621321633E-019
 -3.230000000000000E-002   -1.671499059871604E-019
 -3.220000000000000E-002    2.753654755491074E-019
 -3.210000000000000E-002    8.952578238754962E-019
 -3.200000000000000E-002    1.690850261806259E-018
 -3.190000000000000E-002    2.635757517804471E-018
 -3.180000000000000E-002    3.672190127266514E-018
 -3.170000000000000E-002    4.706052309846288E-018
 -3.160000000000000E-002    5.605268067930282E-018
 -3.150000000000000E-002    6.202838907287141E-018
 -3.140000000000000E-002    6.306031560301242E-018
 -3.130000000000000E-002    5.712608156659857E-018
 -3.120000000000000E-002    4.234409635203830E-018
 -3.110000000000000E-002    1.727543331357900E-018
 -3.100000000000000E-002   -1.872822565445500E-018
 -3.090000000000000E-002   -6.516430372284308E-018
 -3.080000000000000E-002   -1.200539372742142E-017
 -3.070000000000000E-002   -1.797109456116749E-017
 -3.060000000000000E-002   -2.386699281810819E-017
 -3.050000000000000E-002   -2.898377402133227E-017
 -3.040000000000000E-002   -3.249215846740519E-017
 -3.030000000000000E-002   -3.351625519968741E-017
 -3.020000000000000E-002   -3.123702792595048E-017
 -3.010000000000000E-002   -2.502067782995291E-017
 -3.000000000000000E-002   -1.456150904472033E-017
 -2.990000000000000E-002   -2.323291001100585E-020
 -2.980000000000000E-002    1.784224451374749E-017
 -2.970000000000000E-002    3.762301849343685E-017
 -2.960000000000000E-002    5.724773728904263E-017
 -2.950000000000000E-002    7.408155267962859E-017
 -2.940000000000000E-002    8.513365816434399E-017
 -2.930000000000000E-002    8.738220012261127E-017
 -2.920000000000000E-002    7.820623373270953E-017
 -2.910000000000000E-002    5.589642323492949E-017
 -2.900000000000000E-002    2.019579859018270E-017
 -2.890000000000000E-002   -2.719743027655999E-017
 -2.880000000000000E-002   -8.224910175379627E-017
 -2.870000000000000E-002   -1.384227640777403E-016
 -2.860000000000000E-002   -1.868182722488762E-016
 -2.850000000000000E-002   -2.166909024018300E-016
 -2.840000000000000E-002   -2.163978288839816E-016
 -2.830000000000000E-002   -1.747703633880787E-016
 -2.820000000000000E-002   -8.285765554513805E-017
 -2.810000000000000E-002    6.408578099344066E-017
 -2.800000000000000E-002    2.645600813563214E-016
 -2.790000000000000E-002    5.089868250649781E-016
 -2.780000000000000E-002    7.783847857332075E-016
 -2.770000000000000E-002    1.043879948196261E-015
 -2.760000000000000E-002    1.267351962086712E-015
 -2.750000000000000E-002    1.403465178289518E-015
 -2.740000000000000E-002    1.403215021608249E-015
 -2.730000000000000E-002    1.218967665142043E-015
 -2.720000000000000E-002    8.107762302358596E-016
 -2.710000000000000E-002    1.535389181666539E-016
 -2.700000000000000E-002   -7.556503697833673E-016
 -2.690000000000000E-002   -1.890803221285171E-015
 -2.680000000000000E-002   -3.191968562415030E-015
 -2.670000000000000E-002   -4.562818928058539E-015
 -2.660000000000000E-002   -5.871851222715565E-015
 -2.650000000000000E-002   -6.957968018357839E-015
 -2.640000000000000E-002   -7.640854318623424E-015
 -2.630000000000000E-002   -7.736122044545247E-015
 -2.620000000000000E-002   -7.074616475611099E-015
 -2.610000000000000E-002   -5.524640968932280E-015
 -2.600000000000000E-002   -3.015278812410645E-015
 -2.590000000000000E-002    4.415907605878024E-016
 -2.580000000000000E-002    4.733325653690275E-015
 -2.570000000000000E-002    9.635492410874909E-015
 -2.560000000000000E-002    1.481049964599764E-014
 -2.550000000000000E-002    1.981811001395908E-014
 -2.540000000000000E-002    2.413912742567545E-014
 -2.530000000000000E-002    2.721242683431152E-014
 -2.520000000000000E-002    2.848398020046729E-014
 -2.510000000000000E-002    2.746495479464896E-014
 -2.500000000000000E-002    2.379442996596784E-014
 -2.490000000000000E-002    1.730085351197689E-014
 -2.480000000000000E-002    8.055439198155009E-015
 -2.470000000000000E-002   -3.589734870283992E-015
 -2.460000000000000E-002   -1.698577957717200E-014
 -2.450000000000000E-002   -3.119893267019048E-014
 -2.440000000000000E-002   -4.505412077324830E-014
 -2.430000000000000E-002   -5.721109444934495E-014
 -2.420000000000000E-002   -6.627086772619692E-014
 -2.410000000000000E-002   -7.090632284692611E-014
 -2.400000000000000E-002   -7.000743865572787E-014
 -2.390000000000000E-002   -6.282828872906043E-014
 -2.380000000000000E-002   -4.912066891862702E-014
 -2.370000000000000E-002   -2.923810242642364E-014
 -2.360000000000000E-002   -4.194502010705703E-015
 -2.350000000000000E-002    2.433591174929774E-014
 -2.340000000000000E-002    5.408693575369327E-014
 -2.330000000000000E-002    8.234042285042668E-014
 -2.320000000000000E-002    1.061349485957314E-013
 -2.310000000000000E-002    1.225316974164357E-013
 -2.300000000000000E-002    1.289189059957537E-013
 -2.290000000000000E-002    1.233290756072291E-013
 -2.280000000000000E-002    1.047376244407037E-013
 -2.270000000000000E-002    7.330932532554180E-014
 -2.260000000000000E-002    3.055884306369304E-014
 -2.250000000000000E-002   -2.060410445756265E-014
 -2.240000000000000E-002   -7.596729802016591E-014
 -2.230000000000000E-002   -1.302568836434884E-013
 -2.220000000000000E-002   -1.775245003136394E-013
 -2.210000000000000E-002   -2.116615559134264E-013
 -2.200000000000000E-002   -2.270075862044113E-013
 -2.190000000000000E-002   -2.190034840641098E-013
 -2.180000000000000E-002   -1.848295784589254E-013
 -2.170000000000000E-002   -1.239610685910687E-013
 -2.160000000000000E-002   -3.857218328263409E-014
 -2.150000000000000E-002    6.627441465731890E-014
 -2.140000000000000E-002    1.827032829684279E-013
 -2.130000000000000E-002    3.003976324532046E-013
 -2.120000000000000E-002    4.072726126452327E-013
 -2.110000000000000E-002    4.904260448723931E-013
 -2.100000000000000E-002    5.373113676254427E-013
 -2.090000000000000E-002    5.370481312179594E-013
 -2.080000000000000E-002    4.817586709936172E-013
 -2.070000000000000E-002    3.678029266468750E-013
 -2.060000000000000E-002    1.967742929098741E-013
 -2.050000000000000E-002   -2.387543894845635E-014
 -2.040000000000000E-002   -2.806959078818591E-013
 -2.030000000000000E-002   -5.546642825313522E-013
 -2.020000000000000E-002   -8.222160240906927E-013
 -2.010000000000000E-002   -1.056864148501368E-012
 -2.000000000000000E-002   -1.231330711456456E-012
 -1.990000000000000E-002   -1.320056293190894E-012
 -1.980000000000000E-002   -1.301895645554914E-012
 -1.970000000000000E-002   -1.162764893275055E-012
 -1.960000000000000E-002   -8.979795071295479E-013
 -1.950000000000000E-002   -5.140145671252904E-013
 -1.940000000000000E-002   -2.944186025171763E-014
 -1.930000000000000E-002    5.251608620470857E-013
 -1.920000000000000E-002    1.108454870907475E-012
 -1.910000000000000E-002    1.670780565858913E-012
 -1.900000000000000E-002    2.157714144903087E-012
 -1.890000000000000E-002    2.514556401976856E-012
 -1.880000000000000E-002    2.691446560962719E-012
 -1.870000000000000E-002    2.648697857592916E-012
 -1.860000000000000E-002    2.361874695197031E-012
 -1.850000000000000E-002    1.826096932273029E-012
 -1.840000000000000E-002    1.059057513068953E-012
 -1.830000000000000E-002    1.022994160755445E-013
 -1.820000000000000E-002   -9.795975060509435E-013
 -1.810000000000000E-002   -2.102112961358220E-012
 -1.800000000000000E-002   -3.166166987613584E-012
 -1.790000000000000E-002   -4.065572632338403E-012
 -1.780000000000000E-002   -4.696109247469739E-012
 -1.770000000000000E-002   -4.965569065971599E-012
 -1.760000000000000E-002   -4.803940692225057E-012
 -1.750000000000000E-002   -4.172777915177806E-012
 -1.740000000000000E-002   -3.072761335704088E-012
 -1.730000000000000E-002   -1.548503449636757E-012
 -1.720000000000000E-002    3.102053489173392E-013
 -1.710000000000000E-002    2.371275657858961E-012
 -1.700000000000000E-002    4.467546576928488E-012
 -1.690000000000000E-002    6.408231495814699E-012
 -1.680000000000000E-002    7.993982999982159E-012
 -1.670000000000000E-002    9.034594820113935E-012
 -1.660000000000000E-002    9.367967747847143E-012
 -1.650000000000000E-002    8.878673214851859E-012
 -1.640000000000000E-002    7.514290699019714E-012
 -1.630000000000000E-002    5.297701498428520E-012
 -1.620000000000000E-002    2.333666786516111E-012
 -1.610000000000000E-002   -1.191604722093904E-012
 -1.600000000000000E-002   -5.018674384839033E-012
 -1.590000000000000E-002   -8.831003170189617E-012
 -1.580000000000000E-002   -1.227833650334041E-011
 -1.570000000000000E-002   -1.500595235940243E-011
 -1.560000000000000E-002   -1.668760498317160E-011
 -1.550000000000000E-002   -1.705941458546450E-011
 -1.540000000000000E-002   -1.595154863129575E-011
 -1.530000000000000E-002   -1.331437396789994E-011
 -1.520000000000000E-002   -9.235958146366855E-012
 -1.510000000000000E-002   -3.948261018758506E-012
 -1.500000000000000E-002    2.179822104805753E-012
 -1.490000000000000E-002    8.663327221879761E-012
 -1.480000000000000E-002    1.493547422260236E-011
 -1.470000000000000E-002    2.039343732574664E-011
 -1.460000000000000E-002    2.445239045614804E-011
 -1.450000000000000E-002    2.660350066068894E-011
 -1.440000000000000E-002    2.647058275555657E-011
 -1.430000000000000E-002    2.385980746873426E-011
 -1.420000000000000E-002    1.879683855936109E-011
 -1.410000000000000E-002    1.154647015540801E-011
 -1.400000000000000E-002    2.611021553461532E-012
 -1.390000000000000E-002   -7.294580626802829E-012
 -1.380000000000000E-002   -1.729100633096732E-011
 -1.370000000000000E-002   -2.640371369679169E-011
 -1.360000000000000E-002   -3.364852809352508E-011
 -1.350000000000000E-002   -3.812689819802712E-011
 -1.340000000000000E-002   -3.912251796085141E-011
 -1.330000000000000E-002   -3.619001108727072E-011
 -1.320000000000000E-002   -2.922616602014661E-011
 -1.310000000000000E-002   -1.851500693008572E-011
 -1.300000000000000E-002   -4.739637627971357E-012
 -1.290000000000000E-002    1.104360634304436E-011
 -1.280000000000000E-002    2.747005700021799E-011
 -1.270000000000000E-002    4.296813082029491E-011
 -1.260000000000000E-002    5.589110675190395E-011
 -1.250000000000000E-002    6.466944760319747E-011
 -1.240000000000000E-002    6.797085152319232E-011
 -1.230000000000000E-002    6.485335541240239E-011
 -1.220000000000000E-002    5.489589973587849E-011
 -1.210000000000000E-002    3.829162593904836E-011
 -1.200000000000000E-002    1.589127129974160E-011
 -1.190000000000000E-002   -1.081234071037362E-011
 -1.180000000000000E-002   -3.976271722284799E-011
 -1.170000000000000E-002   -6.847944577955167E-011
 -1.160000000000000E-002   -9.425172160133271E-011
 -1.150000000000000E-002   -1.143719162570331E-010
 -1.140000000000000E-002   -1.263906752121387E-010
 -1.130000000000000E-002   -1.283711099937489E-010
 -1.120000000000000E-002   -1.191177479934928E-010
 -1.110000000000000E-002   -9.835625298797195E-011
 -1.100000000000000E-002   -6.684239755210411E-011
 -1.090000000000000E-002   -2.638384796123656E-011
 -1.080000000000000E-002    2.023492145340139E-011
 -1.070000000000000E-002    6.942579368162108E-011
 -1.060000000000000E-002    1.170599278352839E-010
 -1.050000000000000E-002    1.588034485257600E-010
 -1.040000000000000E-002    1.904998735806228E-010
 -1.030000000000000E-002    2.085670305549537E-010
 -1.020000000000000E-002    2.103722818708809E-010
 -1.010000000000000E-002    1.945485592669870E-010
 -1.000000000000000E-002    1.612170591445321E-010
 -9.899999999999999E-003    1.120877453442541E-010
 -9.800000000000000E-003    5.041923222863442E-011
 -9.699999999999999E-003   -1.916934761032006E-011
 -9.599999999999999E-003   -9.102787093503940E-011
 -9.500000000000000E-003   -1.589254198742675E-010
 -9.399999999999999E-003   -2.165874061942430E-010
 -9.299999999999999E-003   -2.582754919648774E-010
 -9.200000000000000E-003   -2.793577719348887E-010
 -9.099999999999999E-003   -2.768146215180459E-010
 -8.999999999999999E-003   -2.496272402848495E-010
 -8.900000000000000E-003   -1.990035047466199E-010
 -8.799999999999999E-003   -1.284077058896611E-010
 -8.699999999999999E-003   -4.337763288427379E-011
 -8.600000000000000E-003    4.886857406239472E-011
 -8.499999999999999E-003    1.400129126074049E-010
 -8.399999999999999E-003    2.213625716910373E-010
 -8.300000000000000E-003    2.846595818662706E-010
 -8.199999999999999E-003    3.229031998337326E-010
 -8.100000000000000E-003    3.311058439975265E-010
 -8.000000000000000E-003    3.069049643317771E-010
 -7.899999999999999E-003    2.509610344100972E-010
 -7.800000000000000E-003    1.670878465687030E-010
 -7.699999999999999E-003    6.208400785249151E-011
 -7.599999999999999E-003   -5.473977147893916E-011
 -7.499999999999999E-003   -1.723124239547718E-010
 -7.399999999999999E-003   -2.787799409038935E-010
 -7.299999999999999E-003   -3.626286193449799E-010
 -7.199999999999999E-003   -4.138546158459332E-010
 -7.100000000000000E-003   -4.250681221530880E-010
 -6.999999999999999E-003   -3.924190190279306E-010
 -6.899999999999999E-003   -3.162395832525308E-010
 -6.800000000000000E-003   -2.013204187804855E-010
 -6.699999999999999E-003   -5.676535654244823E-011
 -6.599999999999999E-003    1.045926489489680E-010
 -6.499999999999999E-003    2.671896173479164E-010
 -6.399999999999999E-003    4.140761413738882E-010
 -6.299999999999999E-003    5.285049675628707E-010
 -6.199999999999999E-003    5.956238443074092E-010
 -6.100000000000000E-003    6.041161145080865E-010
 -5.999999999999999E-003    5.476249954199071E-010
 -5.899999999999999E-003    4.258059945688505E-010
 -5.800000000000000E-003    2.448779010969465E-010
 -5.699999999999999E-003    1.757976757033460E-011
 -5.599999999999999E-003   -2.375082103836677E-010
 -5.499999999999999E-003   -4.972612306349525E-010
 -5.399999999999999E-003   -7.358487773612462E-010
 -5.299999999999999E-003   -9.269798488218115E-010
 -5.199999999999999E-003   -1.046372104631407E-009
 -5.099999999999999E-003   -1.074228028360354E-009
 -4.999999999999999E-003   -9.974852359789161E-010
 -4.899999999999999E-003   -8.116139843445815E-010
 -4.799999999999999E-003   -5.217611346714580E-010
 -4.699999999999999E-003   -1.430902817745931E-010
 -4.599999999999999E-003    2.997695596949988E-010
 -4.499999999999999E-003    7.741748524940692E-010
 -4.399999999999999E-003    1.241740812568141E-009
 -4.299999999999999E-003    1.661284907090328E-009
 -4.199999999999999E-003    1.992209786087010E-009
 -4.099999999999999E-003    2.198045811141248E-009
 -3.999999999999999E-003    2.249841475962341E-009
 -3.899999999999999E-003    2.129088471784520E-009
 -3.799999999999999E-003    1.829892748326039E-009
 -3.699999999999999E-003    1.360161729478629E-009
 -3.599999999999999E-003    7.416538325814619E-010
 -3.499999999999999E-003    8.838795464512114E-012
 -3.399999999999999E-003   -7.933770534856743E-010
 -3.299999999999999E-003   -1.612898011157179E-009
 -3.199999999999999E-003   -2.394397964406727E-009
 -3.099999999999999E-003   -3.083654987261975E-009
 -2.999999999999999E-003   -3.631874259755486E-009
 -2.899999999999999E-003   -3.999602673487730E-009
 -2.799999999999999E-003   -4.159859242643307E-009
 -2.699999999999999E-003   -4.100171067646503E-009
 -2.599999999999999E-003   -3.823294953553284E-009
 -2.499999999999999E-003   -3.346529993572419E-009
 -2.399999999999999E-003   -2.699657569541009E-009
 -2.299999999999999E-003   -1.921681919670389E-009
 -2.199999999999999E-003   -1.056674141526090E-009
 -2.099999999999999E-003   -1.491193896697453E-010
 -1.999999999999999E-003    7.607630804455408E-010
 -1.899999999999999E-003    1.641234706012290E-009
 -1.799999999999999E-003    2.472320665246479E-009
 -1.699999999999999E-003    3.247768308475888E-009
 -1.599999999999999E-003    3.975399059278591E-009
 -1.499999999999999E-003    4.675728033643367E-009
 -1.399999999999999E-003    5.378889179730499E-009
 -1.299999999999999E-003    6.120086763494226E-009
 -1.199999999999999E-003    6.933951323775714E-009
 -1.099999999999999E-003    7.848317777203629E-009
 -9.999999999999989E-004    8.878040199359338E-009
 -8.999999999999990E-004    1.001948637426840E-008
 -7.999999999999990E-004    1.124635022210950E-008
 -6.999999999999989E-004    1.250731884490063E-008
 -5.999999999999990E-004    1.372601028310136E-008
 -4.999999999999989E-004    1.480339858781910E-008
 -3.999999999999989E-004    1.562273355335149E-008
 -2.999999999999989E-004    1.605674241957843E-008
 -1.999999999999989E-004    1.597666153077493E-008
 -9.999999999999892E-005    1.526248235067407E-008
  1.084202172485504E-018    1.381364803519267E-008
  1.000000000000011E-004    1.155935333652153E-008
  2.000000000000011E-004    8.467627696282699E-009
  3.000000000000011E-004    4.552419502943884E-009
  4.000000000000011E-004   -1.219056759234962E-010
  5.000000000000011E-004   -5.439057256468059E-009
  6.000000000000011E-004   -1.123246109868861E-008
  7.000000000000011E-004   -1.728989475356457E-008
  8.000000000000011E-004   -2.336070043998285E-008
  9.000000000000012E-004   -2.916495315743849E-008
  1.000000000000001E-003   -3.440368789681959E-008
  1.100000000000001E-003   -3.876927292224285E-008
  1.200000000000001E-003   -4.195487270831071E-008
  1.300000000000001E-003   -4.366213296058647E-008
  1.400000000000001E-003   -4.360616665569882E-008
  1.500000000000001E-003   -4.151744865125488E-008
  1.600000000000001E-003   -3.714019606725327E-008
  1.700000000000001E-003   -3.022736860156458E-008
  1.800000000000001E-003   -2.053263753091226E-008
  1.900000000000001E-003   -7.799878402913649E-009
  2.000000000000001E-003    8.248535989242596E-009
  2.100000000000001E-003    2.792409049297065E-008
  2.200000000000001E-003    5.158341343992016E-008
  2.300000000000001E-003    7.963788021708474E-008
  2.400000000000001E-003    1.125600269676870E-007
  2.500000000000001E-003    1.508865872561151E-007
  2.600000000000001E-003    1.952174035724866E-007
  2.700000000000001E-003    2.462103558175024E-007
  2.800000000000001E-003    3.045724797771705E-007
  2.900000000000001E-003    3.710482323008669E-007
  3.000000000000001E-003    4.464059077992555E-007
  3.100000000000001E-003    5.314233515959074E-007
  3.200000000000001E-003    6.268744370327881E-007
  3.300000000000001E-003    7.335179849609432E-007
  3.400000000000001E-003    8.520896346211493E-007
  3.500000000000001E-003    9.832989771417545E-007
  3.600000000000001E-003    1.127830995536910E-006
  3.700000000000001E-003    1.286352956373772E-006
  3.800000000000001E-003    1.459526889400334E-006
  3.900000000000001E-003    1.648025526946783E-006
  4.000000000000001E-003    1.852552295532985E-006
  4.100000000000001E-003    2.073861875591884E-006
  4.200000000000001E-003    2.312782013180126E-006
  4.300000000000001E-003    2.570233320229729E-006
  4.400000000000001E-003    2.847245920715079E-006
  4.500000000000001E-003    3.144971026119145E-006
  4.600000000000002E-003    3.464688437421976E-006
  4.700000000000001E-003    3.807806516299554E-006
  4.800000000000001E-003    4.175858353928651E-006
  4.900000000000002E-003    4.570490910726813E-006
  5.000000000000001E-003    4.993452427278421E-006
  5.100000000000001E-003    5.446575157222403E-006
  5.200000000000001E-003    5.931759390571185E-006
  5.300000000000002E-003    6.450958719753474E-006
  5.400000000000001E-003    7.006168180208795E-006
  5.500000000000001E-003    7.599417256885642E-006
  5.600000000000002E-003    8.232771601043792E-006
  5.700000000000001E-003    8.908337147470281E-006
  5.800000000000001E-003    9.628277463625665E-006
  5.900000000000002E-003    1.039483167084137E-005
  6.000000000000001E-003    1.121034254767882E-005
  6.100000000000001E-003    1.207728589648965E-005
  6.200000000000002E-003    1.299830209113451E-005
  6.300000000000002E-003    1.397622703860680E-005
  6.400000000000001E-003    1.501411978823023E-005
  6.500000000000001E-003    1.611528893853863E-005
  6.600000000000002E-003    1.728330841498793E-005
  6.700000000000001E-003    1.852202704299767E-005
  6.800000000000001E-003    1.983557053042102E-005
  6.900000000000002E-003    2.122833787958114E-005
  7.000000000000001E-003    2.270499070485743E-005
  7.100000000000001E-003    2.427043486376341E-005
  7.200000000000002E-003    2.592981057487955E-005
  7.300000000000002E-003    2.768846912241741E-005
  7.400000000000001E-003    2.955196109080618E-005
  7.500000000000001E-003    3.152603611073572E-005
  7.600000000000002E-003    3.361663190705637E-005
  7.700000000000001E-003    3.582989305810859E-005
  7.800000000000001E-003    3.817218678294215E-005
  7.900000000000001E-003    4.065013761275910E-005
  8.000000000000002E-003    4.327064985917487E-005
  8.100000000000001E-003    4.604097325262630E-005
  8.200000000000001E-003    4.896873372910716E-005
  8.300000000000002E-003    5.206198131033201E-005
  8.400000000000001E-003    5.532925317153800E-005
  8.500000000000002E-003    5.877959915702207E-005
  8.600000000000002E-003    6.242263346997425E-005
  8.700000000000001E-003    6.626854507846350E-005
  8.800000000000002E-003    7.032812693192106E-005
  8.900000000000002E-003    7.461278067379627E-005
  9.000000000000001E-003    7.913451287381670E-005
  9.100000000000002E-003    8.390593558328999E-005
  9.200000000000002E-003    8.894024215328475E-005
  9.300000000000001E-003    9.425121108133697E-005
  9.400000000000002E-003    9.985318742735256E-005
  9.500000000000001E-003    1.057610814929687E-004
  9.600000000000001E-003    1.119903795237825E-004
  9.700000000000002E-003    1.185571598332352E-004
  9.800000000000001E-003    1.254781128501937E-004
  9.900000000000001E-003    1.327705951765334E-004
  1.000000000000000E-002    1.404526809905861E-004
  1.010000000000000E-002    1.485432187592423E-004
  1.020000000000000E-002    1.570619177976555E-004
  1.030000000000000E-002    1.660294022532776E-004
  1.040000000000000E-002    1.754672976242075E-004
  1.050000000000000E-002    1.853982887393196E-004
  1.060000000000000E-002    1.958462156246555E-004
  1.070000000000000E-002    2.068360685918688E-004
  1.080000000000000E-002    2.183941019577449E-004
  1.090000000000000E-002    2.305478108000276E-004
  1.100000000000000E-002    2.433259744352411E-004
  1.110000000000000E-002    2.567586588428216E-004
  1.120000000000000E-002    2.708772306489950E-004
  1.130000000000000E-002    2.857143437840011E-004
  1.140000000000000E-002    3.013039422857129E-004
  1.150000000000000E-002    3.176813049757331E-004
  1.160000000000000E-002    3.348829824958029E-004
  1.170000000000000E-002    3.529468906934650E-004
  1.180000000000000E-002    3.719123340358338E-004
  1.190000000000000E-002    3.918200706551049E-004
  1.200000000000000E-002    4.127123294744838E-004
  1.210000000000000E-002    4.346329860877319E-004
  1.220000000000000E-002    4.576275669870827E-004
  1.230000000000000E-002    4.817434048907125E-004
  1.240000000000000E-002    5.070296956862256E-004
  1.250000000000000E-002    5.335377024760950E-004
  1.260000000000000E-002    5.613207094893539E-004
  1.270000000000000E-002    5.904342460792142E-004
  1.280000000000000E-002    6.209360211590246E-004
  1.290000000000000E-002    6.528860775994595E-004
  1.300000000000000E-002    6.863468667046798E-004
  1.310000000000000E-002    7.213831814297633E-004
  1.320000000000000E-002    7.580623133667314E-004
  1.330000000000000E-002    7.964538868651716E-004
  1.340000000000000E-002    8.366300742286400E-004
  1.350000000000000E-002    8.786656243134049E-004
  1.360000000000000E-002    9.226376589323323E-004
  1.370000000000000E-002    9.686259110514852E-004
  1.380000000000000E-002    1.016712831369389E-003
  1.390000000000000E-002    1.066983452351414E-003
  1.400000000000000E-002    1.119525593121006E-003
  1.410000000000000E-002    1.174430150140920E-003
  1.420000000000000E-002    1.231790849484411E-003
  1.430000000000000E-002    1.291704663493644E-003
  1.440000000000000E-002    1.354271784616873E-003
  1.450000000000000E-002    1.419595794265375E-003
  1.460000000000000E-002    1.487783796467893E-003
  1.470000000000000E-002    1.558946736068142E-003
  1.480000000000000E-002    1.633199085421381E-003
  1.490000000000000E-002    1.710659310041067E-003
  1.500000000000000E-002    1.791449618013760E-003
  1.510000000000000E-002    1.875696179468908E-003
  1.520000000000000E-002    1.963529260627443E-003
  1.530000000000000E-002    2.055082989930375E-003
  1.540000000000000E-002    2.150495531220997E-003
  1.550000000000000E-002    2.249908731003418E-003
  1.560000000000000E-002    2.353469186647317E-003
  1.570000000000000E-002    2.461326542697587E-003
  1.580000000000000E-002    2.573635372051492E-003
  1.590000000000000E-002    2.690553914027309E-003
  1.600000000000000E-002    2.812244617737159E-003
  1.610000000000000E-002    2.938874135935749E-003
  1.620000000000000E-002    3.070613636829039E-003
  1.630000000000000E-002    3.207638829965732E-003
  1.640000000000000E-002    3.350130251717010E-003
  1.650000000000000E-002    3.498272850177188E-003
  1.660000000000000E-002    3.652256672068847E-003
  1.670000000000000E-002    3.812276774107503E-003
  1.680000000000000E-002    3.978533326113458E-003
  1.690000000000000E-002    4.151231841424369E-003
  1.700000000000000E-002    4.330583186236329E-003
  1.710000000000000E-002    4.516803161825323E-003
  1.720000000000000E-002    4.710113349793099E-003
  1.730000000000000E-002    4.910740710355624E-003
  1.740000000000000E-002    5.118917000538313E-003
  1.750000000000000E-002    5.334879155057468E-003
  1.760000000000000E-002    5.558869916358844E-003
  1.770000000000000E-002    5.791136584629972E-003
  1.780000000000000E-002    6.031931390154639E-003
  1.790000000000000E-002    6.281512181701758E-003
  1.800000000000000E-002    6.540140526040238E-003
  1.810000000000000E-002    6.808084387924006E-003
  1.820000000000000E-002    7.085615796131939E-003
  1.830000000000000E-002    7.373012379530209E-003
  1.840000000000000E-002    7.670555507174222E-003
  1.850000000000000E-002    7.978532745160380E-003
  1.860000000000000E-002    8.297235999660913E-003
  1.870000000000000E-002    8.626962071239679E-003