 -4.000000000000000E-002    0.000000000000000E+000
 -3.990000000000000E-002    0.000000000000000E+000
 -3.980000000000000E-002    0.000000000000000E+000
 -3.970000000000000E-002    0.000000000000000E+000
 -3.960000000000000E-002    0.000000000000000E+000
 -3.950000000000000E-002    0.000000000000000E+000
 -3.940000000000000E-002    0.000000000000000E+000
 -3.930000000000000E-002    0.000000000000000E+000
 -3.920000000000000E-002    0.000000000000000E+000
 -3.910000000000000E-002    0.000000000000000E+000
 -3.900000000000000E-002    0.000000000000000E+000
 -3.890000000000000E-002    0.000000000000000E+000
 -3.880000000000000E-002    0.000000000000000E+000
 -3.870000000000000E-002    0.000000000000000E+000
 -3.860000000000000E-002    0.000000000000000E+000
 -3.850000000000000E-002    0.000000000000000E+000
 -3.840000000000000E-002    0.000000000000000E+000
 -3.830000000000000E-002    0.000000000000000E+000
 -3.820000000000000E-002    0.000000000000000E+000
 -3.810000000000000E-002    0.000000000000000E+000
 -3.800000000000000E-002    0.000000000000000E+000
 -3.790000000000000E-002    0.000000000000000E+000
 -3.780000000000000E-002    0.000000000000000E+000
 -3.770000000000000E-002    0.000000000000000E+000
 -3.760000000000000E-002    0.000000000000000E+000
 -3.750000000000000E-002    0.000000000000000E+000
 -3.740000000000000E-002    0.000000000000000E+000
 -3.730000000000000E-002    0.000000000000000E+000
 -3.720000000000000E-002    0.000000000000000E+000
 -3.710000000000000E-002    0.000000000000000E+000
 -3.700000000000000E-002    0.000000000000000E+000
 -3.690000000000000E-002    0.000000000000000E+000
 -3.680000000000000E-002    0.000000000000000E+000
 -3.670000000000000E-002    0.000000000000000E+000
 -3.660000000000000E-002    0.000000000000000E+000
 -3.650000000000000E-002    0.000000000000000E+000
 -3.640000000000000E-002    0.000000000000000E+000
 -3.630000000000000E-002    0.000000000000000E+000
 -3.620000000000000E-002    0.000000000000000E+000
 -3.610000000000000E-002    0.000000000000000E+000
 -3.600000000000000E-002    0.000000000000000E+000
 -3.590000000000000E-002    0.000000000000000E+000
 -3.580000000000000E-002    0.000000000000000E+000
 -3.570000000000000E-002    0.000000000000000E+000
 -3.560000000000000E-002    0.000000000000000E+000
 -3.550000000000000E-002    0.000000000000000E+000
 -3.540000000000000E-002    0.000000000000000E+000
 -3.530000000000000E-002    0.000000000000000E+000
 -3.520000000000000E-002    0.000000000000000E+000
 -3.510000000000000E-002    0.000000000000000E+000
 -3.500000000000000E-002    0.000000000000000E+000
 -3.490000000000000E-002    0.000000000000000E+000
 -3.480000000000000E-002    0.000000000000000E+000
 -3.470000000000000E-002    0.000000000000000E+000
 -3.460000000000000E-002    0.000000000000000E+000
 -3.450000000000000E-002    0.000000000000000E+000
 -3.440000000000000E-002    0.000000000000000E+000
 -3.430000000000000E-002    0.000000000000000E+000
 -3.420000000000000E-002    0.000000000000000E+000
 -3.410000000000000E-002    0.000000000000000E+000
 -3.400000000000000E-002    0.000000000000000E+000
 -3.390000000000000E-002    0.000000000000000E+000
 -3.380000000000000E-002    0.000000000000000E+000
 -3.370000000000000E-002    0.000000000000000E+000
 -3.360000000000000E-002    0.000000000000000E+000
 -3.350000000000000E-002    0.000000000000000E+000
 -3.340000000000000E-002    0.000000000000000E+000
 -3.330000000000000E-002    0.000000000000000E+000
 -3.320000000000000E-002    0.000000000000000E+000
 -3.310000000000000E-002    0.000000000000000E+000
 -3.300000000000000E-002    0.000000000000000E+000
 -3.290000000000000E-002    0.000000000000000E+000
 -3.280000000000000E-002    0.000000000000000E+000
 -3.270000000000000E-002    0.000000000000000E+000
 -3.260000000000000E-002    0.000000000000000E+000
 -3.250000000000000E-002    0.000000000000000E+000
 -3.240000000000000E-002    0.000000000000000E+000
 -3.230000000000000E-002    0.000000000000000E+000
 -3.220000000000000E-002    0.000000000000000E+000
 -3.210000000000000E-002    0.000000000000000E+000
 -3.200000000000000E-002    0.000000000000000E+000
 -3.190000000000000E-002    0.000000000000000E+000
 -3.180000000000000E-002    0.000000000000000E+000
 -3.170000000000000E-002    0.000000000000000E+000
 -3.160000000000000E-002    0.000000000000000E+000
 -3.150000000000000E-002    0.000000000000000E+000
 -3.140000000000000E-002    0.000000000000000E+000
 -3.130000000000000E-002    0.000000000000000E+000
 -3.120000000000000E-002    0.000000000000000E+000
 -3.110000000000000E-002    0.000000000000000E+000
 -3.100000000000000E-002    0.000000000000000E+000
 -3.090000000000000E-002    0.000000000000000E+000
 -3.080000000000000E-002    0.000000000000000E+000
 -3.070000000000000E-002    0.000000000000000E+000
 -3.060000000000000E-002    0.000000000000000E+000
 -3.050000000000000E-002    0.000000000000000E+000
 -3.040000000000000E-002    0.000000000000000E+000
 -3.030000000000000E-002    0.000000000000000E+000
 -3.020000000000000E-002    0.000000000000000E+000
 -3.010000000000000E-002    0.000000000000000E+000
 -3.000000000000000E-002    0.000000000000000E+000
 -2.990000000000000E-002    0.000000000000000E+000
 -2.980000000000000E-002    0.000000000000000E+000
 -2.970000000000000E-002    0.000000000000000E+000
 -2.960000000000000E-002    0.000000000000000E+000
 -2.950000000000000E-002    0.000000000000000E+000
 -2.940000000000000E-002    0.000000000000000E+000
 -2.930000000000000E-002    0.000000000000000E+000
 -2.920000000000000E-002    0.000000000000000E+000
 -2.910000000000000E-002    0.000000000000000E+000
 -2.900000000000000E-002    0.000000000000000E+000
 -2.890000000000000E-002    0.000000000000000E+000
 -2.880000000000000E-002    0.000000000000000E+000
 -2.870000000000000E-002    0.000000000000000E+000
 -2.860000000000000E-002    0.000000000000000E+000
 -2.850000000000000E-002    0.000000000000000E+000
 -2.840000000000000E-002    0.000000000000000E+000
 -2.830000000000000E-002    0.000000000000000E+000
 -2.820000000000000E-002    0.000000000000000E+000
 -2.810000000000000E-002    0.000000000000000E+000
 -2.800000000000000E-002    0.000000000000000E+000
 -2.790000000000000E-002    0.000000000000000E+000
 -2.780000000000000E-002    0.000000000000000E+000
 -2.770000000000000E-002    0.000000000000000E+000
 -2.760000000000000E-002    0.000000000000000E+000
 -2.750000000000000E-002    0.000000000000000E+000
 -2.740000000000000E-002    0.000000000000000E+000
 -2.730000000000000E-002    0.000000000000000E+000
 -2.720000000000000E-002    0.000000000000000E+000
 -2.710000000000000E-002    0.000000000000000E+000
 -2.700000000000000E-002    0.000000000000000E+000
 -2.690000000000000E-002    0.000000000000000E+000
 -2.680000000000000E-002    0.000000000000000E+000
 -2.670000000000000E-002    0.000000000000000E+000
 -2.660000000000000E-002    0.000000000000000E+000
 -2.650000000000000E-002    0.000000000000000E+000
 -2.640000000000000E-002    0.000000000000000E+000
 -2.630000000000000E-002    0.000000000000000E+000
 -2.620000000000000E-002    0.000000000000000E+000
 -2.610000000000000E-002    0.000000000000000E+000
 -2.600000000000000E-002    0.000000000000000E+000
 -2.590000000000000E-002    0.000000000000000E+000
 -2.580000000000000E-002    0.000000000000000E+000
 -2.570000000000000E-002    0.000000000000000E+000
 -2.560000000000000E-002    0.000000000000000E+000
 -2.550000000000000E-002    0.000000000000000E+000
 -2.540000000000000E-002    0.000000000000000E+000
 -2.530000000000000E-002    0.000000000000000E+000
 -2.520000000000000E-002    0.000000000000000E+000
 -2.510000000000000E-002    0.000000000000000E+000
 -2.500000000000000E-002    0.000000000000000E+000
 -2.490000000000000E-002    0.000000000000000E+000
 -2.480000000000000E-002    0.000000000000000E+000
 -2.470000000000000E-002    0.000000000000000E+000
 -2.460000000000000E-002    0.000000000000000E+000
 -2.450000000000000E-002    0.000000000000000E+000
 -2.440000000000000E-002    0.000000000000000E+000
 -2.430000000000000E-002    0.000000000000000E+000
 -2.420000000000000E-002    0.000000000000000E+000
 -2.410000000000000E-002    0.000000000000000E+000
 -2.400000000000000E-002    0.000000000000000E+000
 -2.390000000000000E-002    0.000000000000000E+000
 -2.380000000000000E-002    0.000000000000000E+000
 -2.370000000000000E-002    0.000000000000000E+000
 -2.360000000000000E-002    0.000000000000000E+000
 -2.350000000000000E-002    0.000000000000000E+000
 -2.340000000000000E-002    0.000000000000000E+000
 -2.330000000000000E-002    0.000000000000000E+000
 -2.320000000000000E-002    0.000000000000000E+000
 -2.310000000000000E-002    0.000000000000000E+000
 -2.300000000000000E-002    0.000000000000000E+000
 -2.290000000000000E-002    0.000000000000000E+000
 -2.280000000000000E-002    0.000000000000000E+000
 -2.270000000000000E-002    0.000000000000000E+000
 -2.260000000000000E-002    0.000000000000000E+000
 -2.250000000000000E-002    0.000000000000000E+000
 -2.240000000000000E-002    0.000000000000000E+000
 -2.230000000000000E-002    0.000000000000000E+000
 -2.220000000000000E-002    0.000000000000000E+000
 -2.210000000000000E-002    0.000000000000000E+000
 -2.200000000000000E-002    0.000000000000000E+000
 -2.190000000000000E-002    0.000000000000000E+000
 -2.180000000000000E-002    0.000000000000000E+000
 -2.170000000000000E-002    0.000000000000000E+000
 -2.160000000000000E-002    0.000000000000000E+000
 -2.150000000000000E-002    0.000000000000000E+000
 -2.140000000000000E-002    0.000000000000000E+000
 -2.130000000000000E-002    0.000000000000000E+000
 -2.120000000000000E-002    0.000000000000000E+000
 -2.110000000000000E-002    0.000000000000000E+000
 -2.100000000000000E-002    0.000000000000000E+000
 -2.090000000000000E-002    0.000000000000000E+000
 -2.080000000000000E-002    0.000000000000000E+000
 -2.070000000000000E-002    0.000000000000000E+000
 -2.060000000000000E-002    0.000000000000000E+000
 -2.050000000000000E-002    0.000000000000000E+000
 -2.040000000000000E-002    0.000000000000000E+000
 -2.030000000000000E-002    0.000000000000000E+000
 -2.020000000000000E-002    0.000000000000000E+000
 -2.010000000000000E-002    0.000000000000000E+000
 -2.000000000000000E-002    0.000000000000000E+000
 -1.990000000000000E-002    0.000000000000000E+000
 -1.980000000000000E-002    0.000000000000000E+000
 -1.970000000000000E-002    0.000000000000000E+000
 -1.960000000000000E-002    0.000000000000000E+000
 -1.950000000000000E-002    0.000000000000000E+000
 -1.940000000000000E-002    0.000000000000000E+000
 -1.930000000000000E-002    0.000000000000000E+000
 -1.920000000000000E-002    0.000000000000000E+000
 -1.910000000000000E-002    0.000000000000000E+000
 -1.900000000000000E-002    0.000000000000000E+000
 -1.890000000000000E-002    0.000000000000000E+000
 -1.880000000000000E-002    0.000000000000000E+000
 -1.870000000000000E-002    0.000000000000000E+000
 -1.860000000000000E-002    0.000000000000000E+000
 -1.850000000000000E-002    0.000000000000000E+000
 -1.840000000000000E-002    0.000000000000000E+000
 -1.830000000000000E-002    0.000000000000000E+000
 -1.820000000000000E-002    0.000000000000000E+000
 -1.810000000000000E-002    0.000000000000000E+000
 -1.800000000000000E-002    0.000000000000000E+000
 -1.790000000000000E-002    0.000000000000000E+000
 -1.780000000000000E-002    0.000000000000000E+000
 -1.770000000000000E-002    0.000000000000000E+000
 -1.760000000000000E-002    0.000000000000000E+000
 -1.750000000000000E-002    0.000000000000000E+000
 -1.740000000000000E-002    0.000000000000000E+000
 -1.730000000000000E-002    0.000000000000000E+000
 -1.720000000000000E-002    0.000000000000000E+000
 -1.710000000000000E-002    0.000000000000000E+000
 -1.700000000000000E-002    0.000000000000000E+000
 -1.690000000000000E-002    0.000000000000000E+000
 -1.680000000000000E-002    0.000000000000000E+000
 -1.670000000000000E-002    0.000000000000000E+000
 -1.660000000000000E-002    0.000000000000000E+000
 -1.650000000000000E-002    0.000000000000000E+000
 -1.640000000000000E-002    0.000000000000000E+000
 -1.630000000000000E-002    0.000000000000000E+000
 -1.620000000000000E-002    0.000000000000000E+000
 -1.610000000000000E-002    0.000000000000000E+000
 -1.600000000000000E-002    0.000000000000000E+000
 -1.590000000000000E-002    0.000000000000000E+000
 -1.580000000000000E-002    0.000000000000000E+000
 -1.570000000000000E-002    0.000000000000000E+000
 -1.560000000000000E-002    0.000000000000000E+000
 -1.550000000000000E-002    0.000000000000000E+000
 -1.540000000000000E-002    0.000000000000000E+000
 -1.530000000000000E-002    0.000000000000000E+000
 -1.520000000000000E-002    0.000000000000000E+000
 -1.510000000000000E-002    0.000000000000000E+000
 -1.500000000000000E-002    0.000000000000000E+000
 -1.490000000000000E-002    0.000000000000000E+000
 -1.480000000000000E-002    0.000000000000000E+000
 -1.470000000000000E-002    0.000000000000000E+000
 -1.460000000000000E-002    0.000000000000000E+000
 -1.450000000000000E-002    0.000000000000000E+000
 -1.440000000000000E-002    0.000000000000000E+000
 -1.430000000000000E-002    0.000000000000000E+000
 -1.420000000000000E-002    0.000000000000000E+000
 -1.410000000000000E-002    0.000000000000000E+000
 -1.400000000000000E-002    0.000000000000000E+000
 -1.390000000000000E-002    0.000000000000000E+000
 -1.380000000000000E-002    0.000000000000000E+000
 -1.370000000000000E-002    0.000000000000000E+000
 -1.360000000000000E-002    0.000000000000000E+000
 -1.350000000000000E-002    0.000000000000000E+000
 -1.340000000000000E-002    0.000000000000000E+000
 -1.330000000000000E-002    0.000000000000000E+000
 -1.320000000000000E-002    0.000000000000000E+000
 -1.310000000000000E-002    0.000000000000000E+000
 -1.300000000000000E-002    0.000000000000000E+000
 -1.290000000000000E-002    0.000000000000000E+000
 -1.280000000000000E-002    0.000000000000000E+000
 -1.270000000000000E-002    0.000000000000000E+000
 -1.260000000000000E-002   -6.414635304221270E-048
 -1.250000000000000E-002   -1.282927060844254E-047
 -1.240000000000000E-002   -1.282927060844254E-047
 -1.230000000000000E-002   -1.282927060844254E-047
 -1.220000000000000E-002   -6.414635304221270E-048
 -1.210000000000000E-002    2.138211768073757E-048
 -1.200000000000000E-002    1.710569414459005E-047
 -1.190000000000000E-002    1.368455531567204E-047
 -1.180000000000000E-002    1.453984002290154E-047
 -1.170000000000000E-002    1.539512473013105E-047
 -1.160000000000000E-002    1.411219766928679E-047
 -1.150000000000000E-002    4.625211174183960E-047
 -1.140000000000000E-002    2.039335787061515E-047
 -1.130000000000000E-002    3.993143103400080E-047
 -1.120000000000000E-002   -1.925168533019933E-048
 -1.110000000000000E-002    6.002906067560440E-047
 -1.100000000000000E-002    1.082987345685567E-046
 -1.090000000000000E-002   -8.140630136834109E-048
 -1.080000000000000E-002   -1.732133221708325E-047
 -1.070000000000000E-002   -4.041401931227982E-047
 -1.060000000000000E-002   -2.110956643970079E-046
 -1.050000000000000E-002   -4.336288143514352E-046
 -1.040000000000000E-002   -4.525775140594449E-046
 -1.030000000000000E-002   -1.010368404807973E-045
 -1.020000000000000E-002   -1.386332249162428E-045
 -1.010000000000000E-002   -1.528527992111784E-045
 -1.000000000000000E-002   -1.570722166961517E-045
 -9.899999999999999E-003   -1.562308243495885E-045
 -9.800000000000000E-003   -1.997688724030927E-045
 -9.699999999999999E-003   -1.607920723887336E-045
 -9.599999999999999E-003   -2.932172740840502E-046
 -9.500000000000000E-003    1.157801710895082E-045
 -9.399999999999999E-003    2.665246668866698E-045
 -9.299999999999999E-003    4.843812662679381E-045
 -9.200000000000000E-003    7.238651008332294E-045
 -9.099999999999999E-003    9.556427307244586E-045
 -8.999999999999999E-003    1.185927617140601E-044
 -8.900000000000000E-003    1.336886547638765E-044
 -8.799999999999999E-003    1.355922481007539E-044
 -8.699999999999999E-003    1.119989677816284E-044
 -8.600000000000000E-003    6.078947268512729E-045
 -8.499999999999999E-003   -1.140267365734826E-045
 -8.399999999999999E-003   -1.248550598868488E-044
 -8.300000000000000E-003   -2.747178914847906E-044
 -8.199999999999999E-003   -4.609924696490871E-044
 -8.100000000000000E-003   -6.608145117614064E-044
 -8.000000000000000E-003   -8.625620013936557E-044
 -7.899999999999999E-003   -1.019710556408053E-043
 -7.800000000000000E-003   -1.097231725477693E-043
 -7.699999999999999E-003   -1.027222336766382E-043
 -7.599999999999999E-003   -7.723201465525855E-044
 -7.499999999999999E-003   -2.764055586035255E-044
 -7.399999999999999E-003    5.007903900152275E-044
 -7.299999999999999E-003    1.557125384474096E-043
 -7.199999999999999E-003    2.875068435427398E-043
 -7.100000000000000E-003    4.375386761093491E-043
 -6.999999999999999E-003    5.893186227776273E-043
 -6.899999999999999E-003    7.211849532217231E-043
 -6.800000000000000E-003    8.037120849727181E-043
 -6.699999999999999E-003    8.022824372830584E-043
 -6.599999999999999E-003    6.789716484388983E-043
 -6.499999999999999E-003    3.966128208060881E-043
 -6.399999999999999E-003   -7.359755646550808E-044
 -6.299999999999999E-003   -7.449072551440527E-043
 -6.199999999999999E-003   -1.605967280576444E-042
 -6.100000000000000E-003   -2.612944052025122E-042
 -5.999999999999999E-003   -3.681091832575226E-042
 -5.899999999999999E-003   -4.677867400078534E-042
 -5.800000000000000E-003   -5.422766472799986E-042
 -5.699999999999999E-003   -5.697024074739290E-042
 -5.599999999999999E-003   -5.253762310991261E-042
 -5.499999999999999E-003   -3.846124440879365E-042
 -5.399999999999999E-003   -1.263923128548434E-042
 -5.299999999999999E-003    2.621542877849073E-042
 -5.199999999999999E-003    7.803626170731291E-042
 -5.099999999999999E-003    1.408318252826840E-041
 -4.999999999999999E-003    2.101793636564987E-041
 -4.899999999999999E-003    2.788414676459610E-041
 -4.799999999999999E-003    3.366557698099127E-041
 -4.699999999999999E-003    3.707646302030551E-041
 -4.599999999999999E-003    3.664110300063515E-041
 -4.499999999999999E-003    3.082335168953396E-041
 -4.399999999999999E-003    1.822051146235196E-041
 -4.299999999999999E-003   -2.175351602735928E-042
 -4.199999999999999E-003   -3.068175056218257E-041
 -4.099999999999999E-003   -6.659615322646604E-041
 -3.999999999999999E-003   -1.078932782225700E-040
 -3.899999999999999E-003   -1.509744122963189E-040
 -3.799999999999999E-003   -1.905557915287850E-040
 -3.699999999999999E-003   -2.197405173452255E-040
 -3.599999999999999E-003   -2.303472133234342E-040
 -3.499999999999999E-003   -2.135493263695758E-040
 -3.399999999999999E-003   -1.608470425540720E-040
 -3.299999999999999E-003   -6.537308348002765E-041
 -3.199999999999999E-003    7.652670096517131E-041
 -3.099999999999999E-003    2.635660055044989E-040
 -2.999999999999999E-003    4.878008794209911E-040
 -2.899999999999999E-003    7.331931075966513E-040
 -2.799999999999999E-003    9.747380009527028E-040
 -2.699999999999999E-003    1.178499812007681E-039
 -2.599999999999999E-003    1.302869475452504E-039
 -2.499999999999999E-003    1.301338371008884E-039
 -2.399999999999999E-003    1.126953002842109E-039
 -2.299999999999999E-003    7.384579432460909E-040
 -2.199999999999999E-003    1.079058750652604E-040
 -2.099999999999999E-003   -7.707717001362926E-040
 -1.999999999999999E-003   -1.873043854023215E-039
 -1.899999999999999E-003   -3.136031041936624E-039
 -1.799999999999999E-003   -4.453111750261454E-039
 -1.699999999999999E-003   -5.672431668149622E-039
 -1.599999999999999E-003   -6.600880533903988E-039
 -1.499999999999999E-003   -7.014919313048993E-039
 -1.399999999999999E-003   -6.679160949504256E-039
 -1.299999999999999E-003   -5.372928841473729E-039
 -1.199999999999999E-003   -2.924000002120404E-039
 -1.099999999999999E-003    7.524741303781837E-040
 -9.999999999999989E-004    5.613230824839139E-039
 -8.999999999999990E-004    1.144907581975284E-038
 -7.999999999999990E-004    1.785589593440802E-038
 -6.999999999999989E-004    2.422118954568567E-038
 -5.999999999999990E-004    2.973296517359647E-038
 -4.999999999999989E-004    3.341721763957559E-038
 -3.999999999999989E-004    3.420828043532790E-038
 -2.999999999999989E-004    3.105373294320401E-038
 -1.999999999999989E-004    2.305126645695405E-038
 -9.999999999999892E-005    9.610240642705025E-039
  1.084202172485504E-018   -9.375049501023165E-039
  1.000000000000011E-004   -3.335882440754306E-038
  2.000000000000011E-004   -6.100724732507515E-038
  3.000000000000011E-004   -9.011855047092488E-038
  4.000000000000011E-004   -1.176272138113845E-037
  5.000000000000011E-004   -1.397172950671322E-037
  6.000000000000011E-004   -1.520636149672885E-037
  7.000000000000011E-004   -1.502085748387971E-037
  8.000000000000011E-004   -1.300675299504400E-037
  9.000000000000012E-004   -8.853731186418629E-038
  1.000000000000001E-003   -2.416177012866102E-038
  1.100000000000001E-003    6.221216969521196E-038
  1.200000000000001E-003    1.668725057712807E-037
  1.300000000000001E-003    2.828708638571408E-037
  1.400000000000001E-003    3.999415884019135E-037
  1.500000000000001E-003    5.048025154103523E-037
  1.600000000000001E-003    5.819054667106005E-037
  1.700000000000001E-003    6.146666559259460E-037
  1.800000000000001E-003    5.871548623281640E-037
  1.900000000000001E-003    4.861523935998411E-037
  2.000000000000001E-003    3.034327596323935E-037
  2.100000000000001E-003    3.803212871478364E-038
  2.200000000000001E-003   -3.017672576789627E-037
  2.300000000000001E-003   -6.970583256237251E-037
  2.400000000000001E-003   -1.117860298046415E-036
  2.500000000000001E-003   -1.523883292078243E-036
  2.600000000000001E-003   -1.866714590870726E-036
  2.700000000000001E-003   -2.093499797205259E-036
  2.800000000000001E-003   -2.152025787461230E-036
  2.900000000000001E-003   -1.996904656689515E-036
  3.000000000000001E-003   -1.596349310866010E-036
  3.100000000000001E-003   -9.388293745068237E-037
  3.200000000000001E-003   -3.875298630636189E-038
  3.300000000000001E-003    1.059762759874602E-036
  3.400000000000001E-003    2.281928749393869E-036
  3.500000000000001E-003    3.524852062788173E-036
  3.600000000000001E-003    4.664068280500321E-036
  3.700000000000001E-003    5.564004101222738E-036
  3.800000000000001E-003    6.091827177523818E-036
  3.900000000000001E-003    6.133512804159827E-036
  4.000000000000001E-003    5.610413071440097E-036
  4.100000000000001E-003    4.494128251773388E-036
  4.200000000000001E-003    2.817266740389101E-036
  4.300000000000001E-003    6.776917628971078E-037
  4.400000000000001E-003   -1.765688957233709E-036
  4.500000000000001E-003   -4.306703249712378E-036
  4.600000000000002E-003   -6.715137377396144E-036
  4.700000000000001E-003   -8.767741909382775E-036
  4.800000000000001E-003   -1.028363798879084E-035
  4.900000000000002E-003   -1.115911215526821E-035
  5.000000000000001E-003   -1.139553292616056E-035
  5.100000000000001E-003   -1.111341234926992E-035
  5.200000000000001E-003   -1.054611761439300E-035
  5.300000000000002E-003   -1.000806517214835E-035
  5.400000000000001E-003   -9.835405687267275E-036
  5.500000000000001E-003   -1.030101229965450E-035
  5.600000000000002E-003   -1.151119993718101E-035
  5.700000000000001E-003   -1.329698953961766E-035
  5.800000000000001E-003   -1.511857776136870E-035
  5.900000000000002E-003   -1.600576342358791E-035
  6.000000000000001E-003   -1.455952839964136E-035
  6.100000000000001E-003   -9.038334494745721E-036
  6.200000000000002E-003    2.452460950994413E-036
  6.300000000000002E-003    2.166032200170757E-035
  6.400000000000001E-003    4.978198845127328E-035
  6.500000000000001E-003    8.698341764111741E-035
  6.600000000000002E-003    1.318931958753339E-034
  6.700000000000001E-003    1.811405159009904E-034
  6.800000000000001E-003    2.290293929453528E-034
  6.900000000000002E-003    2.674518968724671E-034
  7.000000000000001E-003    2.861449760443236E-034
  7.100000000000001E-003    2.733810110505926E-034
  7.200000000000002E-003    2.171486950440668E-034
  7.300000000000002E-003    1.068300788191154E-034
  7.400000000000001E-003   -6.469250829935783E-035
  7.500000000000001E-003   -2.986502892040331E-034
  7.600000000000002E-003   -5.879657654701739E-034
  7.700000000000001E-003   -9.151280391291103E-034
  7.800000000000001E-003   -1.250769921220059E-033
  7.900000000000001E-003   -1.553387978135438E-033
  8.000000000000002E-003   -1.770642498301302E-033
  8.100000000000001E-003   -1.842592555558544E-033
  8.200000000000001E-003   -1.707082731372749E-033
  8.300000000000002E-003   -1.307271741557971E-033
  8.400000000000001E-003   -6.009966704308778E-034
  8.500000000000002E-003    4.286727823061719E-034
  8.600000000000002E-003    1.762707647863727E-033
  8.700000000000001E-003    3.336586472211222E-033
  8.800000000000002E-003    5.033592831704602E-033
  8.900000000000002E-003    6.682727168376273E-033
  9.000000000000001E-003    8.062964113690110E-033
  9.100000000000002E-003    8.915298622032951E-033
  9.200000000000002E-003    8.963460041622118E-033
  9.300000000000001E-003    7.943307291372823E-033
  9.400000000000002E-003    5.639828072152396E-033
  9.500000000000001E-003    1.929310586356182E-033
  9.600000000000001E-003   -3.177034840234787E-033
  9.700000000000002E-003   -9.493162535479884E-033
  9.800000000000001E-003   -1.662806661501911E-032
  9.900000000000001E-003   -2.397217774867746E-032
  1.000000000000000E-002   -3.070683136336718E-032
  1.010000000000000E-002   -3.584241238097477E-032
  1.020000000000000E-002   -3.828878023911077E-032
  1.030000000000000E-002   -3.695857055180617E-032
  1.040000000000000E-002   -3.090011156187572E-032
  1.050000000000000E-002   -1.945193139979506E-032
  1.060000000000000E-002   -2.406099568011437E-033
  1.070000000000000E-002    1.983717119081082E-032
  1.080000000000000E-002    4.614512528531105E-032
  1.090000000000000E-002    7.458172298076887E-032
  1.100000000000000E-002    1.024141641599406E-031
  1.110000000000000E-002    1.262171655363023E-031
  1.120000000000000E-002    1.420894187539633E-031
  1.130000000000000E-002    1.459861085210311E-031
  1.140000000000000E-002    1.341596023023964E-031
  1.150000000000000E-002    1.036837723767064E-031
  1.160000000000000E-002    5.302202269942715E-032
  1.170000000000000E-002   -1.741809265847318E-032
  1.180000000000000E-002   -1.048128794670217E-031
  1.190000000000000E-002   -2.036121075405099E-031
  1.200000000000000E-002   -3.054689684980706E-031
  1.210000000000000E-002   -3.994820811663184E-031
  1.220000000000000E-002   -4.728017631723540E-031
  1.230000000000000E-002   -5.116226716901883E-031
  1.240000000000000E-002   -5.025453415003180E-031
  1.250000000000000E-002   -4.342397130501542E-031
  1.260000000000000E-002   -2.992904095910696E-031
  1.270000000000000E-002   -9.605445785720968E-032
  1.280000000000000E-002    1.696860488880339E-031
  1.290000000000000E-002    4.835209018374522E-031
  1.300000000000000E-002    8.219124175443004E-031
  1.310000000000000E-002    1.152633597854420E-030
  1.320000000000000E-002    1.436322240670385E-030
  1.330000000000000E-002    1.629247169672545E-030
  1.340000000000000E-002    1.687260156744756E-030
  1.350000000000000E-002    1.570759003995693E-030
  1.360000000000000E-002    1.250334906909952E-030
  1.370000000000000E-002    7.126081705530053E-031
  1.380000000000000E-002   -3.437820862283087E-032
  1.390000000000000E-002   -9.569379781278898E-031
  1.400000000000000E-002   -1.993463246596330E-030
  1.410000000000000E-002   -3.054815539321401E-030
  1.420000000000000E-002   -4.027963298928529E-030
  1.430000000000000E-002   -4.783216850848246E-030
  1.440000000000000E-002   -5.185067613063651E-030
  1.450000000000000E-002   -5.106212890166688E-030
  1.460000000000000E-002   -4.443900129342530E-030
  1.470000000000000E-002   -3.137242683920128E-030
  1.480000000000000E-002   -1.183737440696753E-030
  1.490000000000000E-002    1.347091433059533E-030
  1.500000000000000E-002    4.305140654595928E-030
  1.510000000000000E-002    7.458410496036640E-030
  1.520000000000000E-002    1.050069762458804E-029
  1.530000000000000E-002    1.306944207167515E-029
  1.540000000000000E-002    1.477398188814753E-029
  1.550000000000000E-002    1.523326936107095E-029
  1.560000000000000E-002    1.412087608343488E-029
  1.570000000000000E-002    1.121374057677618E-029
  1.580000000000000E-002    6.439948039587928E-030
  1.590000000000000E-002   -8.014174224815572E-032
  1.600000000000000E-002   -8.005533486069023E-030
  1.610000000000000E-002   -1.676501155502616E-029
  1.620000000000000E-002   -2.557145888650786E-029
  1.630000000000000E-002   -3.346367903779903E-029
  1.640000000000000E-002   -3.937673301550804E-029
  1.650000000000000E-002   -4.223905867277348E-029
  1.660000000000000E-002   -4.109092565230059E-029
  1.670000000000000E-002   -3.521535911954212E-029
  1.680000000000000E-002   -2.426935035964957E-029
  1.690000000000000E-002   -8.400482286108099E-030
  1.700000000000000E-002    1.166729164139152E-029
  1.710000000000000E-002    3.459476763508551E-029
  1.720000000000000E-002    5.844984817559208E-029
  1.730000000000000E-002    8.080106807491194E-029
  1.740000000000000E-002    9.888644650824114E-029
  1.750000000000000E-002    1.098542254967535E-028
  1.760000000000000E-002    1.110625734407383E-028
  1.770000000000000E-002    1.004167992339454E-028
  1.780000000000000E-002    7.671332614466028E-029
  1.790000000000000E-002    3.995285932150419E-029
  1.800000000000000E-002   -8.418634894182242E-030
  1.810000000000000E-002   -6.538305755159183E-029
  1.820000000000000E-002   -1.263745094633868E-028
  1.830000000000000E-002   -1.854824440122088E-028
  1.840000000000000E-002   -2.358458424752498E-028
  1.850000000000000E-002   -2.702318245409424E-028
  1.860000000000000E-002   -2.817699307232994E-028
  1.870000000000000E-002   -2.647895857648685E-028