 -4.000000000000000E-002    0.000000000000000E+000
 -3.990000000000000E-002    0.000000000000000E+000
 -3.980000000000000E-002    0.000000000000000E+000
 -3.970000000000000E-002    1.623394448206386E-016
 -3.960000000000000E-002    1.043796713050501E-015
 -3.950000000000000E-002    3.743921513318810E-015
 -3.940000000000000E-002    9.834770482306013E-015
 -3.930000000000000E-002    2.104803078760494E-014
 -3.920000000000000E-002    3.887830107754949E-014
 -3.910000000000000E-002    6.446584702925296E-014
 -3.900000000000000E-002    9.927226978112419E-014
 -3.890000000000000E-002    1.470856320857284E-013
 -3.880000000000000E-002    2.177147274286564E-013
 -3.870000000000000E-002    3.323439537370486E-013
 -3.860000000000000E-002    5.299250485266265E-013
 -3.850000000000000E-002    8.732906960867487E-013
 -3.840000000000000E-002    1.452982130177477E-012
 -3.830000000000000E-002    2.386308849125138E-012
 -3.820000000000000E-002    3.809027047533700E-012
 -3.810000000000000E-002    5.857433085230377E-012
 -3.800000000000000E-002    8.639648292122261E-012
 -3.790000000000000E-002    1.219647765199756E-011
 -3.780000000000000E-002    1.645425732578320E-011
 -3.770000000000000E-002    2.117440695547511E-011
 -3.760000000000000E-002    2.590664144760000E-011
 -3.750000000000000E-002    2.995444134942678E-011
 -3.740000000000000E-002    3.236235871291259E-011
 -3.730000000000000E-002    3.193431496266632E-011
 -3.720000000000000E-002    2.729031978574613E-011
 -3.710000000000000E-002    1.696601416669340E-011
 -3.700000000000000E-002   -4.454424238753938E-013
 -3.690000000000000E-002   -2.611470263114249E-011
 -3.680000000000000E-002   -6.077239517856965E-011
 -3.670000000000000E-002   -1.044974430083155E-010
 -3.660000000000000E-002   -1.565193097033102E-010
 -3.650000000000000E-002   -2.150588918303595E-010
 -3.640000000000000E-002   -2.772332491272229E-010
 -3.630000000000000E-002   -3.390472536525032E-010
 -3.620000000000000E-002   -3.954898039851648E-010
 -3.610000000000000E-002   -4.407448803013627E-010
 -3.600000000000000E-002   -4.685172866862976E-010
 -3.590000000000000E-002   -4.724616842033378E-010
 -3.580000000000000E-002   -4.466919348070859E-010
 -3.570000000000000E-002   -3.863361951739415E-010
 -3.560000000000000E-002   -2.880954340525471E-010
 -3.550000000000000E-002   -1.507552551013352E-010
 -3.540000000000000E-002    2.439880614185880E-011
 -3.530000000000000E-002    2.333114411731965E-010
 -3.520000000000000E-002    4.690742888011597E-010
 -3.510000000000000E-002    7.220581305951643E-010
 -3.500000000000000E-002    9.802745596720231E-010
 -3.490000000000000E-002    1.229962923955553E-009
 -3.480000000000000E-002    1.456377309753604E-009
 -3.470000000000000E-002    1.644730795646920E-009
 -3.460000000000000E-002    1.781235063932263E-009
 -3.450000000000000E-002    1.854159434190431E-009
 -3.440000000000000E-002    1.854824950232448E-009
 -3.430000000000000E-002    1.778445778066895E-009
 -3.420000000000000E-002    1.624733482403025E-009
 -3.410000000000000E-002    1.398192793750732E-009
 -3.400000000000000E-002    1.108055500167166E-009
 -3.390000000000000E-002    7.678240068931596E-010
 -3.380000000000000E-002    3.944267000316452E-010
 -3.370000000000000E-002    7.021374520221562E-012
 -3.360000000000000E-002   -3.744844671997264E-010
 -3.350000000000000E-002   -7.310939056885844E-010
 -3.340000000000000E-002   -1.046433790756764E-009
 -3.330000000000000E-002   -1.308372304355912E-009
 -3.320000000000000E-002   -1.510387121437951E-009
 -3.310000000000000E-002   -1.652531036027772E-009
 -3.300000000000000E-002   -1.741864560632907E-009
 -3.290000000000000E-002   -1.792255204494587E-009
 -3.280000000000000E-002   -1.823489983951229E-009
 -3.270000000000000E-002   -1.859702796587341E-009
 -3.260000000000000E-002   -1.927183091515742E-009
 -3.250000000000000E-002   -2.051695983021815E-009
 -3.240000000000000E-002   -2.255502588650541E-009
 -3.230000000000000E-002   -2.554322996498396E-009
 -3.220000000000000E-002   -2.954515527425889E-009
 -3.210000000000000E-002   -3.450758864923764E-009
 -3.200000000000000E-002   -4.024509338231027E-009
 -3.190000000000000E-002   -4.643467409594252E-009
 -3.180000000000000E-002   -5.262218278529607E-009
 -3.170000000000000E-002   -5.824124412853518E-009
 -3.160000000000000E-002   -6.264436513192821E-009
 -3.150000000000000E-002   -6.514480707912518E-009
 -3.140000000000000E-002   -6.506662571302774E-009
 -3.130000000000000E-002   -6.179929637328388E-009
 -3.120000000000000E-002   -5.485258038184674E-009
 -3.110000000000000E-002   -4.390682496859965E-009
 -3.100000000000000E-002   -2.885402348106983E-009
 -3.090000000000000E-002   -9.825213003078965E-010
 -3.080000000000000E-002    1.279925760118308E-009
 -3.070000000000000E-002    3.839868315563677E-009
 -3.060000000000000E-002    6.614070274344077E-009
 -3.050000000000000E-002    9.502877554292231E-009
 -3.040000000000000E-002    1.239651322483641E-008
 -3.030000000000000E-002    1.518248156953104E-008
 -3.020000000000000E-002    1.775347348275773E-008
 -3.010000000000000E-002    2.001510100622351E-008
 -3.000000000000000E-002    2.189275250653102E-008
 -2.990000000000000E-002    2.333691276331466E-008
 -2.980000000000000E-002    2.432638804775034E-008
 -2.970000000000000E-002    2.486904091616771E-008
 -2.960000000000000E-002    2.499986370158030E-008
 -2.950000000000000E-002    2.477644374534127E-008
 -2.940000000000000E-002    2.427213662981571E-008
 -2.930000000000000E-002    2.356749858671896E-008
 -2.920000000000000E-002    2.274070996970846E-008
 -2.910000000000000E-002    2.185786182035736E-008
 -2.900000000000000E-002    2.096405467946729E-008
 -2.890000000000000E-002    2.007621099482123E-008
 -2.880000000000000E-002    1.917841245643558E-008
 -2.870000000000000E-002    1.822036576643134E-008
 -2.860000000000000E-002    1.711935036060540E-008
 -2.850000000000000E-002    1.576572139684317E-008
 -2.840000000000000E-002    1.403169863376132E-008
 -2.830000000000000E-002    1.178286856997461E-008
 -2.820000000000000E-002    8.891567819747229E-009
 -2.810000000000000E-002    5.251090319026687E-009
 -2.800000000000000E-002    7.895778112065472E-010
 -2.790000000000000E-002   -4.517632544108451E-009
 -2.780000000000000E-002   -1.063827907849648E-008
 -2.770000000000000E-002   -1.747697381141940E-008
 -2.760000000000000E-002   -2.487323065943731E-008
 -2.750000000000000E-002   -3.260394475072009E-008
 -2.740000000000000E-002   -4.039029174073699E-008
 -2.730000000000000E-002   -4.790854034639094E-008
 -2.720000000000000E-002   -5.480390062693371E-008
 -2.710000000000000E-002   -6.070627095009085E-008
 -2.700000000000000E-002   -6.524638552543830E-008
 -2.690000000000000E-002   -6.807081648175377E-008
 -2.680000000000000E-002   -6.885434840846388E-008
 -2.670000000000000E-002   -6.730820285831357E-008
 -2.660000000000000E-002   -6.318292692579923E-008
 -2.650000000000000E-002   -5.626517192538877E-008
 -2.640000000000000E-002   -4.636801509903548E-008
 -2.630000000000000E-002   -3.331507004323130E-008
 -2.620000000000000E-002   -1.691904251134308E-008
 -2.610000000000000E-002    3.043974259147178E-009
 -2.600000000000000E-002    2.686254619136957E-008
 -2.590000000000000E-002    5.491813309743796E-008
 -2.580000000000000E-002    8.771163895601133E-008
 -2.570000000000000E-002    1.258850820784478E-007
 -2.560000000000000E-002    1.702366183829460E-007
 -2.550000000000000E-002    2.217273271723806E-007
 -2.540000000000000E-002    2.814775183248382E-007
 -2.530000000000000E-002    3.507532316366760E-007
 -2.520000000000000E-002    4.309418691753605E-007
 -2.510000000000000E-002    5.235196531520789E-007
 -2.500000000000000E-002    6.300113579650876E-007
 -2.490000000000000E-002    7.519468950332501E-007
 -2.480000000000000E-002    8.908165963237651E-007
 -2.470000000000000E-002    1.048030733263832E-006
 -2.460000000000000E-002    1.224885800038628E-006
 -2.450000000000000E-002    1.422541988194558E-006
 -2.440000000000000E-002    1.642015221823001E-006
 -2.430000000000000E-002    1.884184426006142E-006
 -2.420000000000000E-002    2.149816741142311E-006
 -2.410000000000000E-002    2.439608555913263E-006
 -2.400000000000000E-002    2.754240513746430E-006
 -2.390000000000000E-002    3.094444199183585E-006
 -2.380000000000000E-002    3.461073283612903E-006
 -2.370000000000000E-002    3.855177344623125E-006
 -2.360000000000000E-002    4.278066214737823E-006
 -2.350000000000000E-002    4.731367698227320E-006
 -2.340000000000000E-002    5.217062070399041E-006
 -2.330000000000000E-002    5.737501541627761E-006
 -2.320000000000000E-002    6.295400420237177E-006
 -2.310000000000000E-002    6.893805406594501E-006
 -2.300000000000000E-002    7.536040358279655E-006
 -2.290000000000000E-002    8.225633654858092E-006
 -2.280000000000000E-002    8.966232066562085E-006
 -2.270000000000000E-002    9.761508213921432E-006
 -2.260000000000000E-002    1.061507300203427E-005
 -2.250000000000000E-002    1.153039541734952E-005
 -2.240000000000000E-002    1.251074265942597E-005
 -2.230000000000000E-002    1.355914475139324E-005
 -2.220000000000000E-002    1.467839119191736E-005
 -2.210000000000000E-002    1.587105425329329E-005
 -2.200000000000000E-002    1.713954636339110E-005
 -2.190000000000000E-002    1.848620887926138E-005
 -2.180000000000000E-002    1.991341194934344E-005
 -2.170000000000000E-002    2.142367654552854E-005
 -2.160000000000000E-002    2.301979910388984E-005
 -2.150000000000000E-002    2.470497091124124E-005
 -2.140000000000000E-002    2.648287550229030E-005
 -2.130000000000000E-002    2.835777776048478E-005
 -2.120000000000000E-002    3.033457234148042E-005
 -2.110000000000000E-002    3.241880247103875E-005
 -2.100000000000000E-002    3.461665143095628E-005
 -2.090000000000000E-002    3.693491032474422E-005
 -2.080000000000000E-002    3.938090652629798E-005
 -2.070000000000000E-002    4.196243313699958E-005
 -2.060000000000000E-002    4.468766347717152E-005
 -2.050000000000000E-002    4.756507718051623E-005
 -2.040000000000000E-002    5.060339078256776E-005
 -2.030000000000000E-002    5.381151613428402E-005
 -2.020000000000000E-002    5.719854585311275E-005
 -2.010000000000000E-002    6.077375402878533E-005
 -2.000000000000000E-002    6.454665265597523E-005
 -1.990000000000000E-002    6.852705060091186E-005
 -1.980000000000000E-002    7.272513156907434E-005
 -1.970000000000000E-002    7.715157424501040E-005
 -1.960000000000000E-002    8.181762460306361E-005
 -1.950000000000000E-002    8.673523347290495E-005
 -1.940000000000000E-002    9.191710664956178E-005
 -1.930000000000000E-002    9.737679448828576E-005
 -1.920000000000000E-002    1.031287305425883E-004
 -1.910000000000000E-002    1.091882523032840E-004
 -1.900000000000000E-002    1.155715880626385E-004
 -1.890000000000000E-002    1.222958457229528E-004
 -1.880000000000000E-002    1.293789719809884E-004
 -1.870000000000000E-002    1.368397077177207E-004
 -1.860000000000000E-002    1.446975741331523E-004
 -1.850000000000000E-002    1.529727824061949E-004
 -1.840000000000000E-002    1.616862782997012E-004
 -1.830000000000000E-002    1.708597241491457E-004
 -1.820000000000000E-002    1.805155330224897E-004
 -1.810000000000000E-002    1.906768999790724E-004
 -1.800000000000000E-002    2.013678907760299E-004
 -1.790000000000000E-002    2.126135467936744E-004
 -1.780000000000000E-002    2.244399579252397E-004
 -1.770000000000000E-002    2.368743691735012E-004
 -1.760000000000000E-002    2.499453118990475E-004
 -1.750000000000000E-002    2.636826828534774E-004
 -1.740000000000000E-002    2.781178047561457E-004
 -1.730000000000000E-002    2.932835463066926E-004
 -1.720000000000000E-002    3.092142858337461E-004
 -1.710000000000000E-002    3.259460145468867E-004
 -1.700000000000000E-002    3.435163270561280E-004
 -1.690000000000000E-002    3.619643929385186E-004
 -1.680000000000000E-002    3.813309808489428E-004
 -1.670000000000000E-002    4.016584455613188E-004
 -1.660000000000000E-002    4.229906763392340E-004
 -1.650000000000000E-002    4.453731057791755E-004
 -1.640000000000000E-002    4.688527744321551E-004
 -1.630000000000000E-002    4.934782709650433E-004
 -1.620000000000000E-002    5.192998804834060E-004
 -1.610000000000000E-002    5.463694748325174E-004
 -1.600000000000000E-002    5.747408162760299E-004
 -1.590000000000000E-002    6.044693713204321E-004
 -1.580000000000000E-002    6.356127350394694E-004
 -1.570000000000000E-002    6.682304129859293E-004
 -1.560000000000000E-002    7.023842702523999E-004
 -1.550000000000000E-002    7.381383338557481E-004
 -1.540000000000000E-002    7.755592304997106E-004
 -1.530000000000000E-002    8.147160796753160E-004
 -1.520000000000000E-002    8.556806783000671E-004
 -1.510000000000000E-002    8.985276348709507E-004
 -1.500000000000000E-002    9.433344460799917E-004
 -1.490000000000000E-002    9.901815065510831E-004
 -1.480000000000000E-002    1.039152169485518E-003
 -1.470000000000000E-002    1.090332807657487E-003
 -1.460000000000000E-002    1.143812852818982E-003
 -1.450000000000000E-002    1.199684671072687E-003
 -1.440000000000000E-002    1.258043628703431E-003
 -1.430000000000000E-002    1.318987933027188E-003
 -1.420000000000000E-002    1.382619045073304E-003
 -1.410000000000000E-002    1.449041069021774E-003
 -1.400000000000000E-002    1.518361130320144E-003
 -1.390000000000000E-002    1.590689286427711E-003
 -1.380000000000000E-002    1.666138643536284E-003
 -1.370000000000000E-002    1.744825503153928E-003
 -1.360000000000000E-002    1.826869189585917E-003
 -1.350000000000000E-002    1.912392558495950E-003
 -1.340000000000000E-002    2.001521940072996E-003
 -1.330000000000000E-002    2.094387210787352E-003
 -1.320000000000000E-002    2.191122256661277E-003
 -1.310000000000000E-002    2.291864747876452E-003
 -1.300000000000000E-002    2.396756714147979E-003
 -1.290000000000000E-002    2.505944128247144E-003
 -1.280000000000000E-002    2.619577193629532E-003
 -1.270000000000000E-002    2.737810221552813E-003
 -1.260000000000000E-002    2.860801937500104E-003
 -1.250000000000000E-002    2.988715009348427E-003
 -1.240000000000000E-002    3.121715965838886E-003
 -1.230000000000000E-002    3.259975011970942E-003
 -1.220000000000000E-002    3.403666470788764E-003
 -1.210000000000000E-002    3.552967944525120E-003
 -1.200000000000000E-002    3.708060292709104E-003
 -1.190000000000000E-002    3.869128368441255E-003
 -1.180000000000000E-002    4.036359850221945E-003
 -1.170000000000000E-002    4.209945765472911E-003
 -1.160000000000000E-002    4.390081297423871E-003
 -1.150000000000000E-002    4.576964393867512E-003
 -1.140000000000000E-002    4.770797728241197E-003
 -1.130000000000000E-002    4.971787281366928E-003
 -1.120000000000000E-002    5.180142471861639E-003
 -1.110000000000000E-002    5.396078020030068E-003
 -1.100000000000000E-002    5.619811765051783E-003
 -1.090000000000000E-002    5.851566400872268E-003
 -1.080000000000000E-002    6.091568543958360E-003
 -1.070000000000000E-002    6.340048747419112E-003
 -1.060000000000000E-002    6.597240777595647E-003
 -1.050000000000000E-002    6.863382060819616E-003
 -1.040000000000000E-002    7.138713606414849E-003
 -1.030000000000000E-002    7.423478791357073E-003
 -1.020000000000000E-002    7.717924671231395E-003
 -1.010000000000000E-002    8.022299736564082E-003
 -1.000000000000000E-002    8.336855858680905E-003
 -9.899999999999999E-003    8.661846063315208E-003
 -9.800000000000000E-003    8.997525040759340E-003
 -9.699999999999999E-003    9.344148593003946E-003
 -9.599999999999999E-003    9.701975408730312E-003
 -9.500000000000000E-003    1.007126545790377E-002
 -9.399999999999999E-003    1.045227856198051E-002
 -9.299999999999999E-003    1.084527657478574E-002
 -9.200000000000000E-003    1.125052232191985E-002
 -9.099999999999999E-003    1.166827849765855E-002
 -8.999999999999999E-003    1.209880764846507E-002
 -8.900000000000000E-003    1.254237315650783E-002
 -8.799999999999999E-003    1.299923754004937E-002
 -8.699999999999999E-003    1.346966085866809E-002
 -8.600000000000000E-003    1.395390327821716E-002
 -8.499999999999999E-003    1.445222159806195E-002
 -8.399999999999999E-003    1.496487146103783E-002
 -8.300000000000000E-003    1.549210342900605E-002
 -8.199999999999999E-003    1.603416680391558E-002
 -8.100000000000000E-003    1.659130574127437E-002
 -8.000000000000000E-003    1.716376166146277E-002
 -7.899999999999999E-003    1.775176912140250E-002
 -7.800000000000000E-003    1.835555895154318E-002
 -7.699999999999999E-003    1.897535804976828E-002
 -7.599999999999999E-003    1.961138564258389E-002
 -7.499999999999999E-003    2.026385752152346E-002
 -7.399999999999999E-003    2.093297797641728E-002
 -7.299999999999999E-003    2.161894773790150E-002
 -7.199999999999999E-003    2.232195625355198E-002
 -7.100000000000000E-003    2.304218712248424E-002
 -6.999999999999999E-003    2.377981176593889E-002
 -6.899999999999999E-003    2.453499226174659E-002
 -6.800000000000000E-003    2.530787825145327E-002
 -6.699999999999999E-003    2.609860412458885E-002
 -6.599999999999999E-003    2.690729422091445E-002
 -6.499999999999999E-003    2.773405614013110E-002
 -6.399999999999999E-003    2.857898602484674E-002
 -6.299999999999999E-003    2.944215970134574E-002
 -6.199999999999999E-003    3.032363613720588E-002
 -6.100000000000000E-003    3.122346045541305E-002
 -5.999999999999999E-003    3.214165794771669E-002
 -5.899999999999999E-003    3.307823129882987E-002
 -5.800000000000000E-003    3.403317029919992E-002
 -5.699999999999999E-003    3.500643802873261E-002
 -5.599999999999999E-003    3.599798029031293E-002
 -5.499999999999999E-003    3.700771886690243E-002
 -5.399999999999999E-003    3.803554881331431E-002
 -5.299999999999999E-003    3.908134290806470E-002
 -5.199999999999999E-003    4.014494687394991E-002
 -5.099999999999999E-003    4.122618214875629E-002
 -4.999999999999999E-003    4.232483686069591E-002
 -4.899999999999999E-003    4.344067526160166E-002
 -4.799999999999999E-003    4.457342568885386E-002
 -4.699999999999999E-003    4.572278665798987E-002
 -4.599999999999999E-003    4.688842007701040E-002
 -4.499999999999999E-003    4.806995860418354E-002
 -4.399999999999999E-003    4.926699735944968E-002
 -4.299999999999999E-003    5.047909531638133E-002
 -4.199999999999999E-003    5.170578029858018E-002
 -4.099999999999999E-003    5.294653221033133E-002
 -3.999999999999999E-003    5.420080402825483E-002
 -3.899999999999999E-003    5.546799976247169E-002
 -3.799999999999999E-003    5.674748777401226E-002
 -3.699999999999999E-003    5.803859198391693E-002
 -3.599999999999999E-003    5.934059202471693E-002
 -3.499999999999999E-003    6.065272991041351E-002
 -3.399999999999999E-003    6.197419255755886E-002
 -3.299999999999999E-003    6.330412741798588E-002
 -3.199999999999999E-003    6.464162785895908E-002
 -3.099999999999999E-003    6.598574149638303E-002
 -2.999999999999999E-003    6.733546340735562E-002
 -2.899999999999999E-003    6.868973630114399E-002
 -2.799999999999999E-003    7.004744982532923E-002
 -2.699999999999999E-003    7.140744476231548E-002
 -2.599999999999999E-003    7.276850192203602E-002
 -2.499999999999999E-003    7.412935115549760E-002
 -2.399999999999999E-003    7.548866505507870E-002
 -2.299999999999999E-003    7.684506104627058E-002
 -2.199999999999999E-003    7.819709993912938E-002
 -2.099999999999999E-003    7.954328369016656E-002
 -1.999999999999999E-003    8.088205106061488E-002
 -1.899999999999999E-003    8.221179772718917E-002
 -1.799999999999999E-003    8.353084207681702E-002
 -1.699999999999999E-003    8.483744834310106E-002
 -1.599999999999999E-003    8.612982161394736E-002
 -1.499999999999999E-003    8.740610803848997E-002
 -1.399999999999999E-003    8.866437793411514E-002
 -1.299999999999999E-003    8.990264966212776E-002
 -1.199999999999999E-003    9.111888129936604E-002
 -1.099999999999999E-003    9.231096311638122E-002
 -9.999999999999989E-004    9.347672197489476E-002
 -8.999999999999990E-004    9.461391998557929E-002
 -7.999999999999990E-004    9.572026178924870E-002
 -6.999999999999989E-004    9.679338973199227E-002
 -5.999999999999990E-004    9.783087865260502E-002
 -4.999999999999989E-004    9.883024203779572E-002
 -3.999999999999989E-004    9.978893908352415E-002
 -2.999999999999989E-004    0.100704363562224     
 -1.999999999999989E-004    0.101573844074794     
 -9.999999999999892E-005    0.102394659044592     
  1.084202172485504E-018    0.103164020808937     
  1.000000000000011E-004    0.103879086057100     
  2.000000000000011E-004    0.104536947662381     
  3.000000000000011E-004    0.105134654789322     
  4.000000000000011E-004    0.105669190661525     
  5.000000000000011E-004    0.106137487783164     
  6.000000000000011E-004    0.106536419490768     
  7.000000000000011E-004    0.106862818033993     
  8.000000000000011E-004    0.107113457854727     
  9.000000000000012E-004    0.107285062851303     
  1.000000000000001E-003    0.107374317387256     
  1.100000000000001E-003    0.107377862560228     
  1.200000000000001E-003    0.107292288494825     
  1.300000000000001E-003    0.107114157280263     
  1.400000000000001E-003    0.106839989396410     
  1.500000000000001E-003    0.106466272102314     
  1.600000000000001E-003    0.105989459461701     
  1.700000000000001E-003    0.105405971993236     
  1.800000000000001E-003    0.104712213172204     
  1.900000000000001E-003    0.103904555471655     
  2.000000000000001E-003    0.102979356511257     
  2.100000000000001E-003    0.101932940649009     
  2.200000000000001E-003    0.100761636535287     
  2.300000000000001E-003    9.946175048551401E-002
  2.400000000000001E-003    9.802958647335221E-002
  2.500000000000001E-003    9.646143583913222E-002
  2.600000000000001E-003    9.475359938175199E-002
  2.700000000000001E-003    9.290237956383476E-002
  2.800000000000001E-003    9.090408957777882E-002
  2.900000000000001E-003    8.875504492536015E-002
  3.000000000000001E-003    8.645159598306983E-002
  3.100000000000001E-003    8.399010294201688E-002
  3.200000000000001E-003    8.136695489679800E-002
  3.300000000000001E-003    7.857857020862431E-002
  3.400000000000001E-003    7.562140727652865E-002
  3.500000000000001E-003    7.249196045003195E-002
  3.600000000000001E-003    6.918677513502698E-002
  3.700000000000001E-003    6.570244336405347E-002
  3.800000000000001E-003    6.203560918243683E-002
  3.900000000000001E-003    5.818298768669942E-002
  4.000000000000001E-003    5.414134346482231E-002
  4.100000000000001E-003    4.990751945269685E-002
  4.200000000000001E-003    4.547843310729574E-002
  4.300000000000001E-003    4.085108757757322E-002
  4.400000000000001E-003    3.602256367749604E-002
  4.500000000000001E-003    3.099004451111776E-002
  4.600000000000002E-003    2.575081246087797E-002
  4.700000000000001E-003    2.030224215949623E-002
  4.800000000000001E-003    1.464183658841010E-002
  4.900000000000002E-003    8.767205276163181E-003
  5.000000000000001E-003    2.676080837449538E-003
  5.100000000000001E-003   -3.633674392271710E-003
  5.200000000000001E-003   -1.016406003993921E-002
  5.300000000000002E-003   -1.691694795759537E-002
  5.400000000000001E-003   -2.389405128475696E-002
  5.500000000000001E-003   -3.109693890179892E-002
  5.600000000000002E-003   -3.852701907505771E-002
  5.700000000000001E-003   -4.618554712641396E-002
  5.800000000000001E-003   -5.407359777024907E-002
  5.900000000000002E-003   -6.219208263662167E-002
  6.000000000000001E-003   -7.054173430869692E-002
  6.100000000000001E-003   -7.912309257035509E-002
  6.200000000000002E-003   -8.793650560215149E-002
  6.300000000000002E-003   -9.698215067048348E-002
  6.400000000000001E-003   -0.106259983084252     
  6.500000000000001E-003   -0.115769745199419     
  6.600000000000002E-003   -0.125510982273461     
  6.700000000000001E-003   -0.135483020416149     
  6.800000000000001E-003   -0.145684958122028     
  6.900000000000002E-003   -0.156115684662684     
  7.000000000000001E-003   -0.166773832386003     
  7.100000000000001E-003   -0.177657827418387     
  7.200000000000002E-003   -0.188765834828614     
  7.300000000000002E-003   -0.200095793286309     
  7.400000000000001E-003   -0.211645389531144     
  7.500000000000001E-003   -0.223412055298442     
  7.600000000000002E-003   -0.235392978929355     
  7.700000000000001E-003   -0.247585092385951     
  7.800000000000001E-003   -0.259985062234847     
  7.900000000000001E-003   -0.272589309168040     
  8.000000000000002E-003   -0.285393974206846     
  8.100000000000001E-003   -0.298394932333148     
  8.200000000000001E-003   -0.311587783606482     
  8.300000000000002E-003   -0.324967866599850     
  8.400000000000001E-003   -0.338530255686427     
  8.500000000000002E-003   -0.352269727520125     
  8.600000000000002E-003   -0.366180817739475     
  8.700000000000001E-003   -0.380257772049809     
  8.800000000000002E-003   -0.394494566196852     
  8.900000000000002E-003   -0.408884852642658     
  9.000000000000001E-003   -0.423422100884828     
  9.100000000000002E-003   -0.438099425403038     
  9.200000000000002E-003   -0.452909722033907     
  9.300000000000001E-003   -0.467845589096244     
  9.400000000000002E-003   -0.482899358150740     
  9.500000000000001E-003   -0.498063083069194     
  9.600000000000001E-003   -0.513328588803846     
  9.700000000000002E-003   -0.528687417277102     
  9.800000000000001E-003   -0.544130868716461     
  9.900000000000001E-003   -0.559649934653442     
  1.000000000000000E-002   -0.575235427817018     
  1.010000000000000E-002   -0.590877856672240     
  1.020000000000000E-002   -0.606567523098763     
  1.030000000000000E-002   -0.622294458777433     
  1.040000000000000E-002   -0.638048493529942     
  1.050000000000000E-002   -0.653819238986073     
  1.060000000000000E-002   -0.669596050662557     
  1.070000000000000E-002   -0.685368075653261     
  1.080000000000000E-002   -0.701124256930062     
  1.090000000000000E-002   -0.716853358871751     
  1.100000000000000E-002   -0.732543915825940     
  1.110000000000000E-002   -0.748184288065251     
  1.120000000000000E-002   -0.763762664990210     
  1.130000000000000E-002   -0.779267117077533     
  1.140000000000000E-002   -0.794685423404975     
  1.150000000000000E-002   -0.810005342852054     
  1.160000000000000E-002   -0.825214425959547     
  1.170000000000000E-002   -0.840300078150944     
  1.180000000000000E-002   -0.855249620686498     
  1.190000000000000E-002   -0.870050259252521     
  1.200000000000000E-002   -0.884689101015730     
  1.210000000000000E-002   -0.899153134421336     
  1.220000000000000E-002   -0.913429313994067     
  1.230000000000000E-002   -0.927504441233561     
  1.240000000000000E-002   -0.941365375663638     
  1.250000000000000E-002   -0.954998839997993     
  1.260000000000000E-002   -0.968391575347827     
  1.270000000000000E-002   -0.981530300000267     
  1.280000000000000E-002   -0.994401722005489     
  1.290000000000000E-002    -1.00699255606832     
  1.300000000000000E-002    -1.01928940515960     
  1.310000000000000E-002    -1.03127915034137     
  1.320000000000000E-002    -1.04294859359044     
  1.330000000000000E-002    -1.05428447834324     
  1.340000000000000E-002    -1.06527384659512     
  1.350000000000000E-002    -1.07590362527281     
  1.360000000000000E-002    -1.08616099889448     
  1.370000000000000E-002    -1.09603317066213     
  1.380000000000000E-002    -1.10550753985182     
  1.390000000000000E-002    -1.11457150866030     
  1.400000000000000E-002    -1.12321270441540     
  1.410000000000000E-002    -1.13141902189336     
  1.420000000000000E-002    -1.13917844320238     
  1.430000000000000E-002    -1.14647908400650     
  1.440000000000000E-002    -1.15330941275260     
  1.450000000000000E-002    -1.15965806352350     
  1.460000000000000E-002    -1.16551379725963     
  1.470000000000000E-002    -1.17086587806827     
  1.480000000000000E-002    -1.17570361545658     
  1.490000000000000E-002    -1.18001658512208     
  1.500000000000000E-002    -1.18379476667039     
  1.510000000000000E-002    -1.18702853182265     
  1.520000000000000E-002    -1.18970830364790     
  1.530000000000000E-002    -1.19182493107977     
  1.540000000000000E-002    -1.19336972554853     
  1.550000000000000E-002    -1.19433428076650     
  1.560000000000000E-002    -1.19471049647282     
  1.570000000000000E-002    -1.19449056959514     
  1.580000000000000E-002    -1.19366738498148     
  1.590000000000000E-002    -1.19223392832913     
  1.600000000000000E-002    -1.19018377587085     
  1.610000000000000E-002    -1.18751082089908     
  1.620000000000000E-002    -1.18420941280701     
  1.630000000000000E-002    -1.18027429670301     
  1.640000000000000E-002    -1.17570075647098     
  1.650000000000000E-002    -1.17048448127532     
  1.660000000000000E-002    -1.16462169799363     
  1.670000000000000E-002    -1.15810894710527     
  1.680000000000000E-002    -1.15094337801014     
  1.690000000000000E-002    -1.14312261716511     
  1.700000000000000E-002    -1.13464468895353     
  1.710000000000000E-002    -1.12550821277088     
  1.720000000000000E-002    -1.11571224594865     
  1.730000000000000E-002    -1.10525638736526     
  1.740000000000000E-002    -1.09414069047465     
  1.750000000000000E-002    -1.08236583788449     
  1.760000000000000E-002    -1.06993292268437     
  1.770000000000000E-002    -1.05684361777825     
  1.780000000000000E-002    -1.04310016206529     
  1.790000000000000E-002    -1.02870520316744     
  1.800000000000000E-002    -1.01366205466995     
  1.810000000000000E-002   -0.997974560999938     
  1.820000000000000E-002   -0.981646887592947     
  1.830000000000000E-002   -0.964683999703533     
  1.840000000000000E-002   -0.947091172158802     
  1.850000000000000E-002   -0.928874412896337     
  1.860000000000000E-002   -0.910040092130629     
  1.870000000000000E-002   -0.890595106350037     