 -4.000000000000000E-002    0.000000000000000E+000
 -3.990000000000000E-002    0.000000000000000E+000
 -3.980000000000000E-002    0.000000000000000E+000
 -3.970000000000000E-002    0.000000000000000E+000
 -3.960000000000000E-002    0.000000000000000E+000
 -3.950000000000000E-002    0.000000000000000E+000
 -3.940000000000000E-002    0.000000000000000E+000
 -3.930000000000000E-002    0.000000000000000E+000
 -3.920000000000000E-002    0.000000000000000E+000
 -3.910000000000000E-002    0.000000000000000E+000
 -3.900000000000000E-002    0.000000000000000E+000
 -3.890000000000000E-002    0.000000000000000E+000
 -3.880000000000000E-002    0.000000000000000E+000
 -3.870000000000000E-002    0.000000000000000E+000
 -3.860000000000000E-002    0.000000000000000E+000
 -3.850000000000000E-002    0.000000000000000E+000
 -3.840000000000000E-002    0.000000000000000E+000
 -3.830000000000000E-002    0.000000000000000E+000
 -3.820000000000000E-002    0.000000000000000E+000
 -3.810000000000000E-002    0.000000000000000E+000
 -3.800000000000000E-002    0.000000000000000E+000
 -3.790000000000000E-002    0.000000000000000E+000
 -3.780000000000000E-002    6.335780588642965E-047
 -3.770000000000000E-002    3.715939882462829E-046
 -3.760000000000000E-002    1.900012366988553E-045
 -3.750000000000000E-002    8.729210580568133E-045
 -3.740000000000000E-002    3.628248966153019E-044
 -3.730000000000000E-002    1.383492842362488E-043
 -3.720000000000000E-002    4.885935082132131E-043
 -3.710000000000000E-002    1.594388212648327E-042
 -3.700000000000000E-002    4.845097363667447E-042
 -3.690000000000000E-002    1.375783900896474E-041
 -3.680000000000000E-002    3.660435967119369E-041
 -3.670000000000000E-002    9.136596824522712E-041
 -3.660000000000000E-002    2.138468445733429E-040
 -3.650000000000000E-002    4.680441438024747E-040
 -3.640000000000000E-002    9.518364141265093E-040
 -3.630000000000000E-002    1.775212111866088E-039
 -3.620000000000000E-002    2.952820741749852E-039
 -3.610000000000000E-002    4.082290961442953E-039
 -3.600000000000000E-002    3.554171911231534E-039
 -3.590000000000000E-002   -3.161241578063521E-039
 -3.580000000000000E-002   -2.688399161461816E-038
 -3.570000000000000E-002   -9.079668636898778E-038
 -3.560000000000000E-002   -2.404521781809249E-037
 -3.550000000000000E-002   -5.586575284011093E-037
 -3.540000000000000E-002   -1.184721378549731E-036
 -3.530000000000000E-002   -2.333806660750114E-036
 -3.520000000000000E-002   -4.304449949594624E-036
 -3.510000000000000E-002   -7.448647685676214E-036
 -3.500000000000000E-002   -1.205732518418084E-035
 -3.490000000000000E-002   -1.808379005532890E-035
 -3.480000000000000E-002   -2.459160492233292E-035
 -3.470000000000000E-002   -2.878041891168566E-035
 -3.460000000000000E-002   -2.443421704943706E-035
 -3.450000000000000E-002    3.122554417114534E-037
 -3.440000000000000E-002    6.582426391919426E-035
 -3.430000000000000E-002    2.040057464539184E-034
 -3.420000000000000E-002    4.604444387255106E-034
 -3.410000000000000E-002    8.935589553607207E-034
 -3.400000000000000E-002    1.567218178142532E-033
 -3.390000000000000E-002    2.531563715193106E-033
 -3.380000000000000E-002    3.785023992431218E-033
 -3.370000000000000E-002    5.209419515778377E-033
 -3.360000000000000E-002    6.470727689481944E-033
 -3.350000000000000E-002    6.882187255245576E-033
 -3.340000000000000E-002    5.236119999875869E-033
 -3.330000000000000E-002   -3.713839345174671E-034
 -3.320000000000000E-002   -1.267080237219538E-032
 -3.310000000000000E-002   -3.521331140592058E-032
 -3.300000000000000E-002   -7.208909931272512E-032
 -3.290000000000000E-002   -1.271790788599633E-031
 -3.280000000000000E-002   -2.027086003103166E-031
 -3.270000000000000E-002   -2.968639696411724E-031
 -3.260000000000000E-002   -4.002893489850625E-031
 -3.250000000000000E-002   -4.914443788383982E-031
 -3.240000000000000E-002   -5.311152228660144E-031
 -3.230000000000000E-002   -4.568753913103214E-031
 -3.220000000000000E-002   -1.790043575644544E-031
 -3.210000000000000E-002    4.197292913588884E-031
 -3.200000000000000E-002    1.477022949264425E-030
 -3.190000000000000E-002    3.132443009630625E-030
 -3.180000000000000E-002    5.492505761833044E-030
 -3.170000000000000E-002    8.575045991235185E-030
 -3.160000000000000E-002    1.223027113666377E-029
 -3.150000000000000E-002    1.603974361515025E-029
 -3.140000000000000E-002    1.920092476485776E-029
 -3.130000000000000E-002    2.041425389050091E-029
 -3.120000000000000E-002    1.780173598029492E-029
 -3.110000000000000E-002    8.899841291031191E-030
 -3.100000000000000E-002   -9.217013889206030E-030
 -3.090000000000000E-002   -3.961620457975274E-029
 -3.080000000000000E-002   -8.492220825731710E-029
 -3.070000000000000E-002   -1.464126685665965E-028
 -3.060000000000000E-002   -2.227743288066945E-028
 -3.050000000000000E-002   -3.085586827411515E-028
 -3.040000000000000E-002   -3.924691921477414E-028
 -3.030000000000000E-002   -4.557345094614890E-028
 -3.020000000000000E-002   -4.709674116863464E-028
 -3.010000000000000E-002   -4.020619414971244E-028
 -3.000000000000000E-002   -2.058107079583880E-028
 -2.990000000000000E-002    1.640079387650931E-028
 -2.980000000000000E-002    7.493695602396257E-028
 -2.970000000000000E-002    1.577083942138707E-027
 -2.960000000000000E-002    2.644175226270975E-027
 -2.950000000000000E-002    3.900227877123002E-027
 -2.940000000000000E-002    5.228352026797895E-027
 -2.930000000000000E-002    6.427634726830200E-027
 -2.920000000000000E-002    7.201281692701427E-027
 -2.910000000000000E-002    7.155915197942647E-027
 -2.900000000000000E-002    5.818392830728711E-027
 -2.890000000000000E-002    2.676690936777059E-027
 -2.880000000000000E-002   -2.749574384324014E-027
 -2.870000000000000E-002   -1.080593960239618E-026
 -2.860000000000000E-002   -2.156854526595859E-026
 -2.850000000000000E-002   -3.468602961065811E-026
 -2.840000000000000E-002   -4.921391821812180E-026
 -2.830000000000000E-002   -6.346706421771680E-026
 -2.820000000000000E-002   -7.492533338756977E-026
 -2.810000000000000E-002   -8.023584265919764E-026
 -2.800000000000000E-002   -7.535921984727579E-026
 -2.790000000000000E-002   -5.590541971868677E-026
 -2.780000000000000E-002   -1.769333866642671E-026
 -2.770000000000000E-002    4.245370626842119E-026
 -2.760000000000000E-002    1.256995962293965E-025
 -2.750000000000000E-002    2.300441520123107E-025
 -2.740000000000000E-002    3.491556059032433E-025
 -2.730000000000000E-002    4.713740173146326E-025
 -2.720000000000000E-002    5.791288623856704E-025
 -2.710000000000000E-002    6.490537106274225E-025
 -2.700000000000000E-002    6.530900581261675E-025
 -2.690000000000000E-002    5.608375589666043E-025
 -2.680000000000000E-002    3.433139096334964E-025
 -2.670000000000000E-002   -2.187316112331943E-026
 -2.660000000000000E-002   -5.441684597799073E-025
 -2.650000000000000E-002   -1.213040752372953E-024
 -2.640000000000000E-002   -1.991124352972758E-024
 -2.630000000000000E-002   -2.808689196719835E-024
 -2.620000000000000E-002   -3.560866170482281E-024
 -2.610000000000000E-002   -4.109193508868734E-024
 -2.600000000000000E-002   -4.288996323955878E-024
 -2.590000000000000E-002   -3.923794800253540E-024
 -2.580000000000000E-002   -2.847300517976787E-024
 -2.570000000000000E-002   -9.325909376767371E-025
 -2.560000000000000E-002    1.873237454807918E-024
 -2.550000000000000E-002    5.512142747361767E-024
 -2.540000000000000E-002    9.780738011650096E-024
 -2.530000000000000E-002    1.430465427465085E-023
 -2.520000000000000E-002    1.852890009396477E-023
 -2.510000000000000E-002    2.173174035302825E-023
 -2.500000000000000E-002    2.306875637560503E-023
 -2.490000000000000E-002    2.165166957013064E-023
 -2.480000000000000E-002    1.666283903170384E-023
 -2.470000000000000E-002    7.501289966144727E-024
 -2.460000000000000E-002   -6.050135547490646E-024
 -2.450000000000000E-002   -2.365387852415257E-023
 -2.440000000000000E-002   -4.426708819332121E-023
 -2.430000000000000E-002   -6.604097016537222E-023
 -2.420000000000000E-002   -8.630258426458128E-023
 -2.410000000000000E-002   -1.016506951579718E-022
 -2.400000000000000E-002   -1.081912831594646E-022
 -2.390000000000000E-002   -1.019265472535795E-022
 -2.380000000000000E-002   -7.929316331169291E-023
 -2.370000000000000E-002   -3.782236892701035E-023
 -2.360000000000000E-002    2.313281086351746E-023
 -2.350000000000000E-002    1.016859959122804E-022
 -2.340000000000000E-002    1.928295046404412E-022
 -2.330000000000000E-002    2.880959641510982E-022
 -2.320000000000000E-002    3.756004036930104E-022
 -2.310000000000000E-002    4.405816443826937E-022
 -2.300000000000000E-002    4.665288443216555E-022
 -2.290000000000000E-002    4.369221469827797E-022
 -2.280000000000000E-002    3.375387091929153E-022
 -2.270000000000000E-002    1.591788843093496E-022
 -2.260000000000000E-002   -9.943798342236704E-023
 -2.250000000000000E-002   -4.289608448803835E-022
 -2.240000000000000E-002   -8.073141822775775E-022
 -2.230000000000000E-002   -1.198710692358987E-021
 -2.220000000000000E-002   -1.554247181711829E-021
 -2.210000000000000E-002   -1.814489239800090E-021
 -2.200000000000000E-002   -1.914293336724580E-021
 -2.190000000000000E-002   -1.789881527314839E-021
 -2.180000000000000E-002   -1.387878510258771E-021
 -2.170000000000000E-002   -6.756616786841474E-022
 -2.160000000000000E-002    3.479948311236020E-022
 -2.150000000000000E-002    1.643336664635071E-021
 -2.140000000000000E-002    3.122715278815918E-021
 -2.130000000000000E-002    4.648047688490886E-021
 -2.120000000000000E-002    6.034251808633731E-021
 -2.110000000000000E-002    7.059909444266380E-021
 -2.100000000000000E-002    7.485788138711131E-021
 -2.090000000000000E-002    7.080982421236153E-021
 -2.080000000000000E-002    5.655336422816478E-021
 -2.070000000000000E-002    3.095624741787454E-021
 -2.060000000000000E-002   -5.982357932487746E-022
 -2.050000000000000E-002   -5.281684075630084E-021
 -2.040000000000000E-002   -1.064411078338179E-020
 -2.030000000000000E-002   -1.620307237475639E-020
 -2.020000000000000E-002   -2.131903928918131E-020
 -2.010000000000000E-002   -2.523423413372277E-020
 -2.000000000000000E-002   -2.713686883827586E-020
 -1.990000000000000E-002   -2.624917547924285E-020
 -1.980000000000000E-002   -2.193409498410527E-020
 -1.970000000000000E-002   -1.381176002281152E-020
 -1.960000000000000E-002   -1.873427249032676E-021
 -1.950000000000000E-002    1.342227758372653E-020
 -1.940000000000000E-002    3.108749967515894E-020
 -1.930000000000000E-002    4.959404458813313E-020
 -1.920000000000000E-002    6.692700852876670E-020
 -1.910000000000000E-002    8.071230703280262E-020
 -1.900000000000000E-002    8.842007509236787E-020
 -1.890000000000000E-002    8.763680854699130E-020
 -1.880000000000000E-002    7.638874595509937E-020
 -1.870000000000000E-002    5.348832066443586E-020
 -1.860000000000000E-002    1.886599759930090E-020
 -1.850000000000000E-002   -2.615709558090736E-020
 -1.840000000000000E-002   -7.870354453346900E-020
 -1.830000000000000E-002   -1.343260196580504E-019
 -1.820000000000000E-002   -1.871826134849943E-019
 -1.810000000000000E-002   -2.304223941856420E-019
 -1.800000000000000E-002   -2.567815143524155E-019
 -1.790000000000000E-002   -2.593642119262209E-019
 -1.780000000000000E-002   -2.325541555247995E-019
 -1.770000000000000E-002   -1.729735406150394E-019
 -1.760000000000000E-002   -8.038367979593232E-020
 -1.750000000000000E-002    4.159604564630736E-020
 -1.740000000000000E-002    1.850774250737592E-019
 -1.730000000000000E-002    3.379179383912433E-019
 -1.720000000000000E-002    4.842497410100452E-019
 -1.710000000000000E-002    6.055697456472393E-019
 -1.700000000000000E-002    6.823775754142602E-019
 -1.690000000000000E-002    6.962802485856721E-019
 -1.680000000000000E-002    6.324075160984182E-019
 -1.670000000000000E-002    4.819129486657843E-019
 -1.660000000000000E-002    2.442782322406084E-019
 -1.650000000000000E-002   -7.089520741423242E-020
 -1.640000000000000E-002   -4.429264247484133E-019
 -1.630000000000000E-002   -8.402114803449340E-019
 -1.620000000000000E-002   -1.221701904239657E-018
 -1.610000000000000E-002   -1.539797441479495E-018
 -1.600000000000000E-002   -1.744591644628866E-018
 -1.590000000000000E-002   -1.789237829787934E-018
 -1.580000000000000E-002   -1.636023957218688E-018
 -1.570000000000000E-002   -1.262580989679189E-018
 -1.560000000000000E-002   -6.675215809409996E-019
 -1.550000000000000E-002    1.252614218156736E-019
 -1.540000000000000E-002    1.064396355094194E-018
 -1.530000000000000E-002    2.071592264571018E-018
 -1.520000000000000E-002    3.045415245714581E-018
 -1.510000000000000E-002    3.868451887720661E-018
 -1.500000000000000E-002    4.417664015734566E-018
 -1.490000000000000E-002    4.577338527598857E-018
 -1.480000000000000E-002    4.253616614746284E-018
 -1.470000000000000E-002    3.389232179839842E-018
 -1.460000000000000E-002    1.976805194915953E-018
 -1.450000000000000E-002    6.891426661515329E-020
 -1.440000000000000E-002   -2.216776505421153E-018
 -1.430000000000000E-002   -4.698801525141546E-018
 -1.420000000000000E-002   -7.140577487550522E-018
 -1.410000000000000E-002   -9.266798186121247E-018
 -1.400000000000000E-002   -1.078705737022306E-017
 -1.390000000000000E-002   -1.142526952185928E-017
 -1.380000000000000E-002   -1.095260649088263E-017
 -1.370000000000000E-002   -9.220867491684800E-018
 -1.360000000000000E-002   -6.192625727477406E-018
 -1.350000000000000E-002   -1.964276464851735E-018
 -1.340000000000000E-002    3.221760651782663E-018
 -1.330000000000000E-002    8.978806632667069E-018
 -1.320000000000000E-002    1.479375690519500E-017
 -1.310000000000000E-002    2.006160894467127E-017
 -1.300000000000000E-002    2.413558614394021E-017
 -1.290000000000000E-002    2.638986447692992E-017
 -1.280000000000000E-002    2.629002320920120E-017
 -1.270000000000000E-002    2.346476590972023E-017
 -1.260000000000000E-002    1.777131805736384E-017
 -1.250000000000000E-002    9.346409533320686E-018
 -1.240000000000000E-002   -1.364832230880322E-018
 -1.230000000000000E-002   -1.360862485550577E-017
 -1.220000000000000E-002   -2.635513088657990E-017
 -1.210000000000000E-002   -3.836544333373388E-017
 -1.200000000000000E-002   -4.829079862576552E-017
 -1.190000000000000E-002   -5.479808758508793E-017
 -1.180000000000000E-002   -5.671221939965408E-017
 -1.170000000000000E-002   -5.316248843116957E-017
 -1.160000000000000E-002   -4.371799917075611E-017
 -1.150000000000000E-002   -2.849623565591995E-017
 -1.140000000000000E-002   -8.229410283242587E-018
 -1.130000000000000E-002    1.572429227825483E-017
 -1.120000000000000E-002    4.143354239824177E-017
 -1.110000000000000E-002    6.651398767357330E-017
 -1.100000000000000E-002    8.831238775720975E-017
 -1.090000000000000E-002    1.041443318243621E-016
 -1.080000000000000E-002    1.115677585511818E-016
 -1.070000000000000E-002    1.086687532146111E-016
 -1.060000000000000E-002    9.433142542411404E-017
 -1.050000000000000E-002    6.846173295419490E-017
 -1.040000000000000E-002    3.213581020199368E-017
 -1.030000000000000E-002   -1.235238151009526E-017
 -1.020000000000000E-002   -6.156240434916492E-017
 -1.010000000000000E-002   -1.111058323019639E-016
 -1.000000000000000E-002   -1.559684031502177E-016
 -9.899999999999999E-003   -1.909384148031849E-016
 -9.800000000000000E-003   -2.111117698044192E-016
 -9.699999999999999E-003   -2.124318321953313E-016
 -9.599999999999999E-003   -1.922138241410775E-016
 -9.500000000000000E-003   -1.495984475805769E-016
 -9.399999999999999E-003   -8.587999286618729E-017
 -9.299999999999999E-003   -4.659967973444306E-018
 -9.200000000000000E-003    8.821177754011297E-017
 -9.099999999999999E-003    1.849285518071549E-016
 -8.999999999999999E-003    2.762520641662384E-016
 -8.900000000000000E-003    3.522473338363146E-016
 -8.799999999999999E-003    4.031815097400207E-016
 -8.699999999999999E-003    4.205173655760637E-016
 -8.600000000000000E-003    3.979155466291025E-016
 -8.499999999999999E-003    3.321480023781816E-016
 -8.399999999999999E-003    2.238214196771217E-016
 -8.300000000000000E-003    7.781756964570452E-017
 -8.199999999999999E-003   -9.662886009689299E-017
 -8.100000000000000E-003   -2.862657155795010E-016
 -8.000000000000000E-003   -4.745908800497820E-016
 -7.899999999999999E-003   -6.430315711817196E-016
 -7.800000000000000E-003   -7.724708841086783E-016
 -7.699999999999999E-003   -8.450185339355921E-016
 -7.599999999999999E-003   -8.458858299407979E-016
 -7.499999999999999E-003   -7.651986609711826E-016
 -7.399999999999999E-003   -5.995689607745011E-016
 -7.299999999999999E-003   -3.532449378014183E-016
 -7.199999999999999E-003   -3.868259106224972E-017
 -7.100000000000000E-003    3.235889124681292E-016
 -6.999999999999999E-003    7.058765686652483E-016
 -6.899999999999999E-003    1.075018703181492E-015
 -6.800000000000000E-003    1.394800407109493E-015
 -6.699999999999999E-003    1.628950233317044E-015
 -6.599999999999999E-003    1.744507588035169E-015
 -6.499999999999999E-003    1.715292316539501E-015
 -6.399999999999999E-003    1.525166124254123E-015
 -6.299999999999999E-003    1.170757241303552E-015
 -6.199999999999999E-003    6.633326295231466E-016
 -6.100000000000000E-003    2.954315823905292E-017
 -5.999999999999999E-003   -6.891619205116047E-016
 -5.899999999999999E-003   -1.438549872642404E-015
 -5.800000000000000E-003   -2.155036122813711E-015
 -5.699999999999999E-003   -2.770378662834167E-015
 -5.599999999999999E-003   -3.217349711367293E-015
 -5.499999999999999E-003   -3.435975119726142E-015
 -5.399999999999999E-003   -3.379831814084650E-015
 -5.299999999999999E-003   -3.021824871997916E-015
 -5.199999999999999E-003   -2.358860056405062E-015
 -5.099999999999999E-003   -1.414835714188308E-015
 -4.999999999999999E-003   -2.415049135685405E-016
 -4.899999999999999E-003    1.083134451124890E-015
 -4.799999999999999E-003    2.459027711799052E-015
 -4.699999999999999E-003    3.770763359912185E-015
 -4.599999999999999E-003    4.896411258705741E-015
 -4.499999999999999E-003    5.717937353180357E-015
 -4.399999999999999E-003    6.132387348695441E-015
 -4.299999999999999E-003    6.062878553607386E-015
 -4.199999999999999E-003    5.468346059662291E-015
 -4.099999999999999E-003    4.351010099239569E-015
 -3.999999999999999E-003    2.760572993562341E-015
 -3.899999999999999E-003    7.944296728523000E-016
 -3.799999999999999E-003   -1.406571061105585E-015
 -3.699999999999999E-003   -3.666908475749841E-015
 -3.599999999999999E-003   -5.789335619891378E-015
 -3.499999999999999E-003   -7.571230656797272E-015
 -3.399999999999999E-003   -8.823131547351109E-015
 -3.299999999999999E-003   -9.387913269720825E-015
 -3.199999999999999E-003   -9.158814708352113E-015
 -3.099999999999999E-003   -8.094483565647973E-015
 -2.999999999999999E-003   -6.229227598739144E-015
 -2.899999999999999E-003   -3.676969306582302E-015
 -2.799999999999999E-003   -6.278965598750251E-016
 -2.699999999999999E-003    2.662705345572818E-015
 -2.599999999999999E-003    5.893136018029653E-015
 -2.499999999999999E-003    8.740448707131418E-015
 -2.399999999999999E-003    1.089033391924835E-014
 -2.299999999999999E-003    1.206924596623413E-014
 -2.199999999999999E-003    1.207587718132898E-014
 -2.099999999999999E-003    1.080876595748723E-014
 -1.999999999999999E-003    8.286931948320011E-015
 -1.899999999999999E-003    4.660635701611446E-015
 -1.799999999999999E-003    2.102747501534012E-016
 -1.699999999999999E-003   -4.667893311219790E-015
 -1.599999999999999E-003   -9.489202830063201E-015
 -1.499999999999999E-003   -1.371987734486169E-014
 -1.399999999999999E-003   -1.682568478377042E-014
 -1.299999999999999E-003   -1.832611801513394E-014
 -1.199999999999999E-003   -1.784941531269915E-014
 -1.099999999999999E-003   -1.518310644750249E-014
 -9.999999999999989E-004   -1.031463156725835E-014
 -8.999999999999990E-004   -3.456998759514235E-015
 -7.999999999999990E-004    4.944700744055425E-015
 -6.999999999999989E-004    1.422862765342560E-014
 -5.999999999999990E-004    2.355437183988249E-014
 -4.999999999999989E-004    3.196279150721547E-014
 -3.999999999999989E-004    3.845420211549145E-014
 -2.999999999999989E-004    4.207954167338445E-014
 -1.999999999999989E-004    4.203733504471631E-014
 -9.999999999999892E-005    3.776795044694118E-014
  1.084202172485504E-018    2.903631348308736E-014
  1.000000000000011E-004    1.599383618328556E-014
  2.000000000000011E-004   -7.877648938165776E-016
  3.000000000000011E-004   -2.031738238078151E-014
  4.000000000000011E-004   -4.122309034361358E-014
  5.000000000000011E-004   -6.182922442624370E-014
  6.000000000000011E-004   -8.026877330387086E-014
  7.000000000000011E-004   -9.462472577716800E-014
  8.000000000000011E-004   -1.030909121679658E-013
  9.000000000000012E-004   -1.041402950203716E-013
  1.000000000000001E-003   -9.668687228901266E-014
  1.100000000000001E-003   -8.022673835082330E-014
  1.200000000000001E-003   -5.494442048990403E-014
  1.300000000000001E-003   -2.177259745222866E-014
  1.400000000000001E-003    1.760490722645460E-014
  1.500000000000001E-003    6.081087680235158E-014
  1.600000000000001E-003    1.048951500603258E-013
  1.700000000000001E-003    1.465127098384461E-013
  1.800000000000001E-003    1.821502748524907E-013
  1.900000000000001E-003    2.083874639269961E-013
  2.000000000000001E-003    2.221745877490675E-013
  2.100000000000001E-003    2.211063008556967E-013
  2.200000000000001E-003    2.036696470736492E-013
  2.300000000000001E-003    1.694447844416780E-013
  2.400000000000001E-003    1.192388164594682E-013
  2.500000000000001E-003    5.513698911008753E-014
  2.600000000000001E-003   -1.953967927388146E-014
  2.700000000000001E-003   -1.003744351774904E-013
  2.800000000000001E-003   -1.820902228960840E-013
  2.900000000000001E-003   -2.588701389836391E-013
  3.000000000000001E-003   -3.247459307966450E-013
  3.100000000000001E-003   -3.740307522789151E-013
  3.200000000000001E-003   -4.017665024013777E-013
  3.300000000000001E-003   -4.041542762965094E-013
  3.400000000000001E-003   -3.789327665720342E-013
  3.500000000000001E-003   -3.256723666222783E-013
  3.600000000000001E-003   -2.459549263813712E-013
  3.700000000000001E-003   -1.434156271622025E-013
  3.800000000000001E-003   -2.363215217605026E-014
  3.900000000000001E-003    1.061442366741103E-013
  4.000000000000001E-003    2.374078934592687E-013
  4.100000000000001E-003    3.609499350339537E-013
  4.200000000000001E-003    4.675085974552912E-013
  4.300000000000001E-003    5.484775579727534E-013
  4.400000000000001E-003    5.966180957023824E-013
  4.500000000000001E-003    6.067212985061192E-013
  4.600000000000002E-003    5.761587081651930E-013
  4.700000000000001E-003    5.052662958366705E-013
  4.800000000000001E-003    3.975151293333283E-013
  4.900000000000002E-003    2.594331898960616E-013
  5.000000000000001E-003    1.002627676981918E-013
  5.100000000000001E-003   -6.864196324208756E-014
  5.200000000000001E-003   -2.346495171263383E-013
  5.300000000000002E-003   -3.848634051040654E-013
  5.400000000000001E-003   -5.072399766303679E-013
  5.500000000000001E-003   -5.917169898677612E-013
  5.600000000000002E-003   -6.312507632097311E-013
  5.700000000000001E-003   -6.226547495975597E-013
  5.800000000000001E-003   -5.671373565520540E-013
  5.900000000000002E-003   -4.704591528524535E-013
  6.000000000000001E-003   -3.426514049445710E-013
  6.100000000000001E-003   -1.972794319827035E-013
  6.200000000000002E-003   -5.027583842402626E-014
  6.300000000000002E-003    8.158779295373203E-014
  6.400000000000001E-003    1.824698081138231E-013
  6.500000000000001E-003    2.393155110179927E-013
  6.600000000000002E-003    2.436165943394043E-013
  6.700000000000001E-003    1.928741664046408E-013
  6.800000000000001E-003    9.157273079041912E-014
  6.900000000000002E-003   -4.850050915497403E-014
  7.000000000000001E-003   -2.087130862147580E-013
  7.100000000000001E-003   -3.648721101477078E-013
  7.200000000000002E-003   -4.893135015243300E-013
  7.300000000000002E-003   -5.536787178813949E-013
  7.400000000000001E-003   -5.321755531454174E-013
  7.500000000000001E-003   -4.050354095647951E-013
  7.600000000000002E-003   -1.618317641605341E-013
  7.700000000000001E-003    1.957267516170926E-013
  7.800000000000001E-003    6.519006598337009E-013
  7.900000000000001E-003    1.176251375593990E-012
  8.000000000000002E-003    1.724455350487046E-012
  8.100000000000001E-003    2.240730864994569E-012
  8.200000000000001E-003    2.661856513265747E-012
  8.300000000000002E-003    2.922599711413576E-012
  8.400000000000001E-003    2.962184417893693E-012
  8.500000000000002E-003    2.731299410386388E-012
  8.600000000000002E-003    2.198989849225128E-012
  8.700000000000001E-003    1.358722539429081E-012
  8.800000000000002E-003    2.328944149047602E-013
  8.900000000000002E-003   -1.124892634584149E-012
  9.000000000000001E-003   -2.630309067464915E-012
  9.100000000000002E-003   -4.171865042484816E-012
  9.200000000000002E-003   -5.617625270995141E-012
  9.300000000000001E-003   -6.824811788456251E-012
  9.400000000000002E-003   -7.651739863048669E-012
  9.500000000000001E-003   -7.971212960438683E-012
  9.600000000000001E-003   -7.684259172386859E-012
  9.700000000000002E-003   -6.732924658602200E-012
  9.800000000000001E-003   -5.110771436832511E-012
  9.900000000000001E-003   -2.869811146287025E-012
  1.000000000000000E-002   -1.227818972433062E-013
  1.010000000000000E-002    2.959968360727380E-012
  1.020000000000000E-002    6.159305339224611E-012
  1.030000000000000E-002    9.221629702633567E-012
  1.040000000000000E-002    1.187792102640324E-011
  1.050000000000000E-002    1.386622708740441E-011
  1.060000000000000E-002    1.495579079787902E-011
  1.070000000000000E-002    1.497075365458075E-011
  1.080000000000000E-002    1.381112428412375E-011
  1.090000000000000E-002    1.146879639680875E-011
  1.100000000000000E-002    8.036623304082545E-012
  1.110000000000000E-002    3.709059986387938E-012
  1.120000000000000E-002   -1.226460948545990E-012
  1.130000000000000E-002   -6.407437455105681E-012
  1.140000000000000E-002   -1.142261689573678E-011
  1.150000000000000E-002   -1.584497800096077E-011
  1.160000000000000E-002   -1.926879449434492E-011
  1.170000000000000E-002   -2.134766096656268E-011
  1.180000000000000E-002   -2.182993094546568E-011
  1.190000000000000E-002   -2.058800817841066E-011
  1.200000000000000E-002   -1.763825143872065E-011
  1.210000000000000E-002   -1.314885967684716E-011
  1.220000000000000E-002   -7.434093862984716E-012
  1.230000000000000E-002   -9.343778723395980E-013
  1.240000000000000E-002    5.816835034861980E-012
  1.250000000000000E-002    1.223721545699574E-011
  1.260000000000000E-002    1.774718583729507E-011
  1.270000000000000E-002    2.182463176541299E-011
  1.280000000000000E-002    2.405749894416624E-011
  1.290000000000000E-002    2.418905122110311E-011
  1.300000000000000E-002    2.215085245521575E-011
  1.310000000000000E-002    1.807936786945007E-011
  1.320000000000000E-002    1.231347263395017E-011
  1.330000000000000E-002    5.371816192611214E-012
  1.340000000000000E-002   -2.089040081769393E-012
  1.350000000000000E-002   -9.332839406312143E-012
  1.360000000000000E-002   -1.561344020868442E-011
  1.370000000000000E-002   -2.024998837584639E-011
  1.380000000000000E-002   -2.270018942309317E-011
  1.390000000000000E-002   -2.262416882554766E-011
  1.400000000000000E-002   -1.993172409269842E-011
  1.410000000000000E-002   -1.480702726004839E-011
  1.420000000000000E-002   -7.706644815160444E-012
  1.430000000000000E-002    6.707923598794991E-013
  1.440000000000000E-002    9.442232975294750E-012
  1.450000000000000E-002    1.762112475386579E-011
  1.460000000000000E-002    2.421508300947108E-011
  1.470000000000000E-002    2.833139199084988E-011
  1.480000000000000E-002    2.928003052313780E-011
  1.490000000000000E-002    2.666341272065847E-011
  1.500000000000000E-002    2.044252497466264E-011
  1.510000000000000E-002    1.097078241870038E-011
  1.520000000000000E-002   -1.010428980620839E-012
  1.530000000000000E-002   -1.441712479105157E-011
  1.540000000000000E-002   -2.790755396932940E-011
  1.550000000000000E-002   -4.000100943489657E-011
  1.560000000000000E-002   -4.922111423123649E-011
  1.570000000000000E-002   -5.425091601334091E-011
  1.580000000000000E-002   -5.408488722730429E-011
  1.590000000000000E-002   -4.816202470774293E-011
  1.600000000000000E-002   -3.646507387967306E-011
  1.610000000000000E-002   -1.957282481328050E-011
  1.620000000000000E-002    1.343550242917975E-012
  1.630000000000000E-002    2.458442534435721E-011
  1.640000000000000E-002    4.804448847454462E-011
  1.650000000000000E-002    6.938689150072426E-011
  1.660000000000000E-002    8.625556695423735E-011
  1.670000000000000E-002    9.650782918877870E-011
  1.680000000000000E-002    9.844578147842746E-011
  1.690000000000000E-002    9.102358628418780E-011
  1.700000000000000E-002    7.400840570195094E-011
  1.710000000000000E-002    4.807538190964925E-011
  1.720000000000000E-002    1.482234812751216E-011
  1.730000000000000E-002   -2.330350045893688E-011
  1.740000000000000E-002   -6.316666742899814E-011
  1.750000000000000E-002   -1.011831993943591E-010
  1.760000000000000E-002   -1.336223002576439E-010
  1.770000000000000E-002   -1.569451759565544E-010
  1.780000000000000E-002   -1.681517657350358E-010
  1.790000000000000E-002   -1.651025480232692E-010
  1.800000000000000E-002   -1.467834593993078E-010
  1.810000000000000E-002   -1.134846639328031E-010
  1.820000000000000E-002   -6.687061884975281E-011
  1.830000000000000E-002   -9.927591854296055E-012
  1.840000000000000E-002    5.321445370625723E-011
  1.850000000000000E-002    1.175767568160440E-010
  1.860000000000000E-002    1.777232622270405E-010
  1.870000000000000E-002    2.282178858695851E-010