 -4.000000000000000E-002    0.000000000000000E+000
 -3.990000000000000E-002    0.000000000000000E+000
 -3.980000000000000E-002    0.000000000000000E+000
 -3.970000000000000E-002    0.000000000000000E+000
 -3.960000000000000E-002    0.000000000000000E+000
 -3.950000000000000E-002    0.000000000000000E+000
 -3.940000000000000E-002    0.000000000000000E+000
 -3.930000000000000E-002    0.000000000000000E+000
 -3.920000000000000E-002    0.000000000000000E+000
 -3.910000000000000E-002    0.000000000000000E+000
 -3.900000000000000E-002    0.000000000000000E+000
 -3.890000000000000E-002    0.000000000000000E+000
 -3.880000000000000E-002    0.000000000000000E+000
 -3.870000000000000E-002    0.000000000000000E+000
 -3.860000000000000E-002    0.000000000000000E+000
 -3.850000000000000E-002    0.000000000000000E+000
 -3.840000000000000E-002    0.000000000000000E+000
 -3.830000000000000E-002    0.000000000000000E+000
 -3.820000000000000E-002    0.000000000000000E+000
 -3.810000000000000E-002    0.000000000000000E+000
 -3.800000000000000E-002    0.000000000000000E+000
 -3.790000000000000E-002    0.000000000000000E+000
 -3.780000000000000E-002    0.000000000000000E+000
 -3.770000000000000E-002    0.000000000000000E+000
 -3.760000000000000E-002    0.000000000000000E+000
 -3.750000000000000E-002    0.000000000000000E+000
 -3.740000000000000E-002    0.000000000000000E+000
 -3.730000000000000E-002    0.000000000000000E+000
 -3.720000000000000E-002    0.000000000000000E+000
 -3.710000000000000E-002    0.000000000000000E+000
 -3.700000000000000E-002    0.000000000000000E+000
 -3.690000000000000E-002    0.000000000000000E+000
 -3.680000000000000E-002    0.000000000000000E+000
 -3.670000000000000E-002    0.000000000000000E+000
 -3.660000000000000E-002    0.000000000000000E+000
 -3.650000000000000E-002    0.000000000000000E+000
 -3.640000000000000E-002    0.000000000000000E+000
 -3.630000000000000E-002    0.000000000000000E+000
 -3.620000000000000E-002    0.000000000000000E+000
 -3.610000000000000E-002    0.000000000000000E+000
 -3.600000000000000E-002    0.000000000000000E+000
 -3.590000000000000E-002    0.000000000000000E+000
 -3.580000000000000E-002    0.000000000000000E+000
 -3.570000000000000E-002    0.000000000000000E+000
 -3.560000000000000E-002    0.000000000000000E+000
 -3.550000000000000E-002    0.000000000000000E+000
 -3.540000000000000E-002    0.000000000000000E+000
 -3.530000000000000E-002    0.000000000000000E+000
 -3.520000000000000E-002    0.000000000000000E+000
 -3.510000000000000E-002    0.000000000000000E+000
 -3.500000000000000E-002    0.000000000000000E+000
 -3.490000000000000E-002    0.000000000000000E+000
 -3.480000000000000E-002    0.000000000000000E+000
 -3.470000000000000E-002    0.000000000000000E+000
 -3.460000000000000E-002    0.000000000000000E+000
 -3.450000000000000E-002    0.000000000000000E+000
 -3.440000000000000E-002    0.000000000000000E+000
 -3.430000000000000E-002    0.000000000000000E+000
 -3.420000000000000E-002    0.000000000000000E+000
 -3.410000000000000E-002    0.000000000000000E+000
 -3.400000000000000E-002    0.000000000000000E+000
 -3.390000000000000E-002    0.000000000000000E+000
 -3.380000000000000E-002    0.000000000000000E+000
 -3.370000000000000E-002    0.000000000000000E+000
 -3.360000000000000E-002    0.000000000000000E+000
 -3.350000000000000E-002    0.000000000000000E+000
 -3.340000000000000E-002    0.000000000000000E+000
 -3.330000000000000E-002    0.000000000000000E+000
 -3.320000000000000E-002    0.000000000000000E+000
 -3.310000000000000E-002    0.000000000000000E+000
 -3.300000000000000E-002    0.000000000000000E+000
 -3.290000000000000E-002    0.000000000000000E+000
 -3.280000000000000E-002    0.000000000000000E+000
 -3.270000000000000E-002    0.000000000000000E+000
 -3.260000000000000E-002    0.000000000000000E+000
 -3.250000000000000E-002    0.000000000000000E+000
 -3.240000000000000E-002    0.000000000000000E+000
 -3.230000000000000E-002    0.000000000000000E+000
 -3.220000000000000E-002    0.000000000000000E+000
 -3.210000000000000E-002    0.000000000000000E+000
 -3.200000000000000E-002    0.000000000000000E+000
 -3.190000000000000E-002    0.000000000000000E+000
 -3.180000000000000E-002    0.000000000000000E+000
 -3.170000000000000E-002    0.000000000000000E+000
 -3.160000000000000E-002    0.000000000000000E+000
 -3.150000000000000E-002    0.000000000000000E+000
 -3.140000000000000E-002    0.000000000000000E+000
 -3.130000000000000E-002    0.000000000000000E+000
 -3.120000000000000E-002    0.000000000000000E+000
 -3.110000000000000E-002    0.000000000000000E+000
 -3.100000000000000E-002    0.000000000000000E+000
 -3.090000000000000E-002    0.000000000000000E+000
 -3.080000000000000E-002    0.000000000000000E+000
 -3.070000000000000E-002    0.000000000000000E+000
 -3.060000000000000E-002    0.000000000000000E+000
 -3.050000000000000E-002    0.000000000000000E+000
 -3.040000000000000E-002    0.000000000000000E+000
 -3.030000000000000E-002    0.000000000000000E+000
 -3.020000000000000E-002    0.000000000000000E+000
 -3.010000000000000E-002    0.000000000000000E+000
 -3.000000000000000E-002    0.000000000000000E+000
 -2.990000000000000E-002    0.000000000000000E+000
 -2.980000000000000E-002    0.000000000000000E+000
 -2.970000000000000E-002    0.000000000000000E+000
 -2.960000000000000E-002    0.000000000000000E+000
 -2.950000000000000E-002    0.000000000000000E+000
 -2.940000000000000E-002    0.000000000000000E+000
 -2.930000000000000E-002    0.000000000000000E+000
 -2.920000000000000E-002    0.000000000000000E+000
 -2.910000000000000E-002    0.000000000000000E+000
 -2.900000000000000E-002    0.000000000000000E+000
 -2.890000000000000E-002    0.000000000000000E+000
 -2.880000000000000E-002    0.000000000000000E+000
 -2.870000000000000E-002    0.000000000000000E+000
 -2.860000000000000E-002    0.000000000000000E+000
 -2.850000000000000E-002    0.000000000000000E+000
 -2.840000000000000E-002    0.000000000000000E+000
 -2.830000000000000E-002    0.000000000000000E+000
 -2.820000000000000E-002    0.000000000000000E+000
 -2.810000000000000E-002    0.000000000000000E+000
 -2.800000000000000E-002    0.000000000000000E+000
 -2.790000000000000E-002    0.000000000000000E+000
 -2.780000000000000E-002    0.000000000000000E+000
 -2.770000000000000E-002    0.000000000000000E+000
 -2.760000000000000E-002    0.000000000000000E+000
 -2.750000000000000E-002    0.000000000000000E+000
 -2.740000000000000E-002    0.000000000000000E+000
 -2.730000000000000E-002    0.000000000000000E+000
 -2.720000000000000E-002    0.000000000000000E+000
 -2.710000000000000E-002    0.000000000000000E+000
 -2.700000000000000E-002    0.000000000000000E+000
 -2.690000000000000E-002    0.000000000000000E+000
 -2.680000000000000E-002    0.000000000000000E+000
 -2.670000000000000E-002    0.000000000000000E+000
 -2.660000000000000E-002    0.000000000000000E+000
 -2.650000000000000E-002    0.000000000000000E+000
 -2.640000000000000E-002    0.000000000000000E+000
 -2.630000000000000E-002    0.000000000000000E+000
 -2.620000000000000E-002    0.000000000000000E+000
 -2.610000000000000E-002    0.000000000000000E+000
 -2.600000000000000E-002    0.000000000000000E+000
 -2.590000000000000E-002    0.000000000000000E+000
 -2.580000000000000E-002    0.000000000000000E+000
 -2.570000000000000E-002    0.000000000000000E+000
 -2.560000000000000E-002    0.000000000000000E+000
 -2.550000000000000E-002    0.000000000000000E+000
 -2.540000000000000E-002    0.000000000000000E+000
 -2.530000000000000E-002    0.000000000000000E+000
 -2.520000000000000E-002    0.000000000000000E+000
 -2.510000000000000E-002    0.000000000000000E+000
 -2.500000000000000E-002    0.000000000000000E+000
 -2.490000000000000E-002    0.000000000000000E+000
 -2.480000000000000E-002    0.000000000000000E+000
 -2.470000000000000E-002    0.000000000000000E+000
 -2.460000000000000E-002    0.000000000000000E+000
 -2.450000000000000E-002    0.000000000000000E+000
 -2.440000000000000E-002    0.000000000000000E+000
 -2.430000000000000E-002    0.000000000000000E+000
 -2.420000000000000E-002    0.000000000000000E+000
 -2.410000000000000E-002    0.000000000000000E+000
 -2.400000000000000E-002    0.000000000000000E+000
 -2.390000000000000E-002    0.000000000000000E+000
 -2.380000000000000E-002    0.000000000000000E+000
 -2.370000000000000E-002    0.000000000000000E+000
 -2.360000000000000E-002    0.000000000000000E+000
 -2.350000000000000E-002    0.000000000000000E+000
 -2.340000000000000E-002    0.000000000000000E+000
 -2.330000000000000E-002    0.000000000000000E+000
 -2.320000000000000E-002    0.000000000000000E+000
 -2.310000000000000E-002    0.000000000000000E+000
 -2.300000000000000E-002    0.000000000000000E+000
 -2.290000000000000E-002    0.000000000000000E+000
 -2.280000000000000E-002    0.000000000000000E+000
 -2.270000000000000E-002    0.000000000000000E+000
 -2.260000000000000E-002    0.000000000000000E+000
 -2.250000000000000E-002    0.000000000000000E+000
 -2.240000000000000E-002    0.000000000000000E+000
 -2.230000000000000E-002    0.000000000000000E+000
 -2.220000000000000E-002    0.000000000000000E+000
 -2.210000000000000E-002    0.000000000000000E+000
 -2.200000000000000E-002    0.000000000000000E+000
 -2.190000000000000E-002    0.000000000000000E+000
 -2.180000000000000E-002    0.000000000000000E+000
 -2.170000000000000E-002    0.000000000000000E+000
 -2.160000000000000E-002    0.000000000000000E+000
 -2.150000000000000E-002    0.000000000000000E+000
 -2.140000000000000E-002    0.000000000000000E+000
 -2.130000000000000E-002    0.000000000000000E+000
 -2.120000000000000E-002    0.000000000000000E+000
 -2.110000000000000E-002    0.000000000000000E+000
 -2.100000000000000E-002    0.000000000000000E+000
 -2.090000000000000E-002    0.000000000000000E+000
 -2.080000000000000E-002    0.000000000000000E+000
 -2.070000000000000E-002    0.000000000000000E+000
 -2.060000000000000E-002    0.000000000000000E+000
 -2.050000000000000E-002    0.000000000000000E+000
 -2.040000000000000E-002    0.000000000000000E+000
 -2.030000000000000E-002    0.000000000000000E+000
 -2.020000000000000E-002    0.000000000000000E+000
 -2.010000000000000E-002    0.000000000000000E+000
 -2.000000000000000E-002    0.000000000000000E+000
 -1.990000000000000E-002    0.000000000000000E+000
 -1.980000000000000E-002    0.000000000000000E+000
 -1.970000000000000E-002    0.000000000000000E+000
 -1.960000000000000E-002    0.000000000000000E+000
 -1.950000000000000E-002    0.000000000000000E+000
 -1.940000000000000E-002    0.000000000000000E+000
 -1.930000000000000E-002    0.000000000000000E+000
 -1.920000000000000E-002    0.000000000000000E+000
 -1.910000000000000E-002    0.000000000000000E+000
 -1.900000000000000E-002    0.000000000000000E+000
 -1.890000000000000E-002    0.000000000000000E+000
 -1.880000000000000E-002    0.000000000000000E+000
 -1.870000000000000E-002    0.000000000000000E+000
 -1.860000000000000E-002    0.000000000000000E+000
 -1.850000000000000E-002    0.000000000000000E+000
 -1.840000000000000E-002    0.000000000000000E+000
 -1.830000000000000E-002    0.000000000000000E+000
 -1.820000000000000E-002    0.000000000000000E+000
 -1.810000000000000E-002    0.000000000000000E+000
 -1.800000000000000E-002    0.000000000000000E+000
 -1.790000000000000E-002    0.000000000000000E+000
 -1.780000000000000E-002    0.000000000000000E+000
 -1.770000000000000E-002    0.000000000000000E+000
 -1.760000000000000E-002    0.000000000000000E+000
 -1.750000000000000E-002    0.000000000000000E+000
 -1.740000000000000E-002    0.000000000000000E+000
 -1.730000000000000E-002    0.000000000000000E+000
 -1.720000000000000E-002    0.000000000000000E+000
 -1.710000000000000E-002    0.000000000000000E+000
 -1.700000000000000E-002    0.000000000000000E+000
 -1.690000000000000E-002    0.000000000000000E+000
 -1.680000000000000E-002    0.000000000000000E+000
 -1.670000000000000E-002    0.000000000000000E+000
 -1.660000000000000E-002    0.000000000000000E+000
 -1.650000000000000E-002    0.000000000000000E+000
 -1.640000000000000E-002    0.000000000000000E+000
 -1.630000000000000E-002    0.000000000000000E+000
 -1.620000000000000E-002    0.000000000000000E+000
 -1.610000000000000E-002    0.000000000000000E+000
 -1.600000000000000E-002    0.000000000000000E+000
 -1.590000000000000E-002    0.000000000000000E+000
 -1.580000000000000E-002    0.000000000000000E+000
 -1.570000000000000E-002    0.000000000000000E+000
 -1.560000000000000E-002    0.000000000000000E+000
 -1.550000000000000E-002    0.000000000000000E+000
 -1.540000000000000E-002    0.000000000000000E+000
 -1.530000000000000E-002    0.000000000000000E+000
 -1.520000000000000E-002    0.000000000000000E+000
 -1.510000000000000E-002    0.000000000000000E+000
 -1.500000000000000E-002    0.000000000000000E+000
 -1.490000000000000E-002    0.000000000000000E+000
 -1.480000000000000E-002    0.000000000000000E+000
 -1.470000000000000E-002    0.000000000000000E+000
 -1.460000000000000E-002    0.000000000000000E+000
 -1.450000000000000E-002    0.000000000000000E+000
 -1.440000000000000E-002    0.000000000000000E+000
 -1.430000000000000E-002    0.000000000000000E+000
 -1.420000000000000E-002    0.000000000000000E+000
 -1.410000000000000E-002    0.000000000000000E+000
 -1.400000000000000E-002    0.000000000000000E+000
 -1.390000000000000E-002    0.000000000000000E+000
 -1.380000000000000E-002    0.000000000000000E+000
 -1.370000000000000E-002    0.000000000000000E+000
 -1.360000000000000E-002    0.000000000000000E+000
 -1.350000000000000E-002    0.000000000000000E+000
 -1.340000000000000E-002    0.000000000000000E+000
 -1.330000000000000E-002    0.000000000000000E+000
 -1.320000000000000E-002    0.000000000000000E+000
 -1.310000000000000E-002    0.000000000000000E+000
 -1.300000000000000E-002    0.000000000000000E+000
 -1.290000000000000E-002    0.000000000000000E+000
 -1.280000000000000E-002    0.000000000000000E+000
 -1.270000000000000E-002    0.000000000000000E+000
 -1.260000000000000E-002    0.000000000000000E+000
 -1.250000000000000E-002    0.000000000000000E+000
 -1.240000000000000E-002    0.000000000000000E+000
 -1.230000000000000E-002    0.000000000000000E+000
 -1.220000000000000E-002    0.000000000000000E+000
 -1.210000000000000E-002    0.000000000000000E+000
 -1.200000000000000E-002    0.000000000000000E+000
 -1.190000000000000E-002    0.000000000000000E+000
 -1.180000000000000E-002    0.000000000000000E+000
 -1.170000000000000E-002    0.000000000000000E+000
 -1.160000000000000E-002    0.000000000000000E+000
 -1.150000000000000E-002    0.000000000000000E+000
 -1.140000000000000E-002    0.000000000000000E+000
 -1.130000000000000E-002    0.000000000000000E+000
 -1.120000000000000E-002    0.000000000000000E+000
 -1.110000000000000E-002    0.000000000000000E+000
 -1.100000000000000E-002    0.000000000000000E+000
 -1.090000000000000E-002    0.000000000000000E+000
 -1.080000000000000E-002    0.000000000000000E+000
 -1.070000000000000E-002    0.000000000000000E+000
 -1.060000000000000E-002    0.000000000000000E+000
 -1.050000000000000E-002    0.000000000000000E+000
 -1.040000000000000E-002    0.000000000000000E+000
 -1.030000000000000E-002    0.000000000000000E+000
 -1.020000000000000E-002    0.000000000000000E+000
 -1.010000000000000E-002    0.000000000000000E+000
 -1.000000000000000E-002    0.000000000000000E+000
 -9.899999999999999E-003    0.000000000000000E+000
 -9.800000000000000E-003    0.000000000000000E+000
 -9.699999999999999E-003    0.000000000000000E+000
 -9.599999999999999E-003    0.000000000000000E+000
 -9.500000000000000E-003    0.000000000000000E+000
 -9.399999999999999E-003    0.000000000000000E+000
 -9.299999999999999E-003    0.000000000000000E+000
 -9.200000000000000E-003    0.000000000000000E+000
 -9.099999999999999E-003    0.000000000000000E+000
 -8.999999999999999E-003    0.000000000000000E+000
 -8.900000000000000E-003    0.000000000000000E+000
 -8.799999999999999E-003    0.000000000000000E+000
 -8.699999999999999E-003    0.000000000000000E+000
 -8.600000000000000E-003    0.000000000000000E+000
 -8.499999999999999E-003    6.414635304221270E-048
 -8.399999999999999E-003    1.282927060844254E-047
 -8.300000000000000E-003   -2.266504474158182E-047
 -8.199999999999999E-003   -3.891545417894237E-047
 -8.100000000000000E-003   -1.539512473013105E-047
 -8.000000000000000E-003   -1.539512473013105E-047
 -7.899999999999999E-003    2.009919061989331E-047
 -7.800000000000000E-003    2.352032944881132E-047
 -7.699999999999999E-003    3.016239445230798E-047
 -7.599999999999999E-003    4.664023358894391E-047
 -7.499999999999999E-003    3.318310797254726E-047
 -7.399999999999999E-003    2.627409276326478E-047
 -7.299999999999999E-003    2.584645040965003E-047
 -7.199999999999999E-003    3.716536425797293E-047
 -7.100000000000000E-003   -1.335830183782016E-046
 -6.999999999999999E-003   -2.689582573056702E-046
 -6.899999999999999E-003   -3.072191614560799E-046
 -6.800000000000000E-003   -5.130075220680854E-046
 -6.699999999999999E-003   -8.925521533505729E-046
 -6.599999999999999E-003   -1.008723533991028E-045
 -6.499999999999999E-003   -1.145369396517767E-045
 -6.399999999999999E-003   -1.139195021493535E-045
 -6.299999999999999E-003   -1.085914810998524E-045
 -6.199999999999999E-003   -6.804318628074343E-046
 -6.100000000000000E-003    5.774346795663829E-046
 -5.999999999999999E-003    7.213522564378399E-046
 -5.899999999999999E-003    2.465397603212455E-045
 -5.800000000000000E-003    4.222685998509263E-045
 -5.699999999999999E-003    5.402851613076623E-045
 -5.599999999999999E-003    6.767370612748018E-045
 -5.499999999999999E-003    8.585118843220189E-045
 -5.399999999999999E-003    8.780196474737655E-045
 -5.299999999999999E-003    7.923901553300156E-045
 -5.199999999999999E-003    5.922881947698946E-045
 -5.099999999999999E-003    1.962267507325508E-045
 -4.999999999999999E-003   -3.046440636281762E-045
 -4.899999999999999E-003   -1.025036666268603E-044
 -4.799999999999999E-003   -1.960012708411222E-044
 -4.699999999999999E-003   -3.087080537755232E-044
 -4.599999999999999E-003   -4.099991462775894E-044
 -4.499999999999999E-003   -5.019633443982614E-044
 -4.399999999999999E-003   -5.588184009464506E-044
 -4.299999999999999E-003   -5.622717244329596E-044
 -4.199999999999999E-003   -4.839865900973744E-044
 -4.099999999999999E-003   -2.922205204270063E-044
 -3.999999999999999E-003    2.844951475476440E-045
 -3.899999999999999E-003    4.946568929977449E-044
 -3.799999999999999E-003    1.108099719392012E-043
 -3.699999999999999E-003    1.824128467823781E-043
 -3.599999999999999E-003    2.595030862904641E-043
 -3.499999999999999E-003    3.329096508083637E-043
 -3.399999999999999E-003    3.902848033258475E-043
 -3.299999999999999E-003    4.167696321439350E-043
 -3.199999999999999E-003    3.942344467209079E-043
 -3.099999999999999E-003    3.051180935980628E-043
 -2.999999999999999E-003    1.337854858704758E-043
 -2.899999999999999E-003   -1.282151472971680E-043
 -2.799999999999999E-003   -4.840945513642689E-043
 -2.699999999999999E-003   -9.228277187353297E-043
 -2.599999999999999E-003   -1.416308549459828E-042
 -2.499999999999999E-003   -1.917323287419779E-042
 -2.399999999999999E-003   -2.358349039706899E-042
 -2.299999999999999E-003   -2.653194281463822E-042
 -2.199999999999999E-003   -2.700034599756892E-042
 -2.099999999999999E-003   -2.390914900562204E-042
 -1.999999999999999E-003   -1.624827346571918E-042
 -1.899999999999999E-003   -3.219778895164447E-043
 -1.799999999999999E-003    1.552859285870768E-042
 -1.699999999999999E-003    3.972227259385154E-042
 -1.599999999999999E-003    6.820047835021324E-042
 -1.499999999999999E-003    9.878912848842169E-042
 -1.399999999999999E-003    1.281306853590985E-041
 -1.299999999999999E-003    1.517592682988812E-041
 -1.199999999999999E-003    1.642223453455914E-041
 -1.099999999999999E-003    1.594982417131664E-041
 -9.999999999999989E-004    1.315433328710371E-041
 -8.999999999999990E-004    7.515777829300021E-042
 -7.999999999999990E-004   -1.305260612658324E-042
 -6.999999999999989E-004   -1.334707870559982E-041
 -5.999999999999990E-004   -2.823549945036738E-041
 -4.999999999999989E-004   -4.507469468969786E-041
 -3.999999999999989E-004   -6.237582479512742E-041
 -2.999999999999989E-004   -7.803416843697981E-041
 -1.999999999999989E-004   -8.938058058311328E-041
 -9.999999999999892E-005   -9.333060959963316E-041
  1.084202172485504E-018   -8.663874073012654E-041
  1.000000000000011E-004   -6.626476284541386E-041
  2.000000000000011E-004   -2.984732449592871E-041
  3.000000000000011E-004    2.374611794592770E-041
  4.000000000000011E-004    9.383114329129848E-041
  5.000000000000011E-004    1.773485956259328E-040
  6.000000000000011E-004    2.684256906925247E-040
  7.000000000000011E-004    3.581391710859929E-040
  8.000000000000011E-004    4.345997006378041E-040
  9.000000000000012E-004    4.834401506085021E-040
  1.000000000000001E-003    4.887959474983724E-040
  1.100000000000001E-003    4.348113579776086E-040
  1.200000000000001E-003    3.076528590886215E-040
  1.300000000000001E-003    9.795264510572296E-041
  1.400000000000001E-003   -1.964989573829964E-040
  1.500000000000001E-003   -5.680588756387931E-040
  1.600000000000001E-003   -9.968899767745243E-040
  1.700000000000001E-003   -1.449375914879437E-039
  1.800000000000001E-003   -1.877738924638870E-039
  1.900000000000001E-003   -2.221312258460958E-039
  2.000000000000001E-003   -2.409828069251439E-039
  2.100000000000001E-003   -2.368964508196518E-039
  2.200000000000001E-003   -2.028187507587759E-039
  2.300000000000001E-003   -1.330626502712885E-039
  2.400000000000001E-003   -2.444194345633371E-040
  2.500000000000001E-003    1.225425990979037E-039
  2.600000000000001E-003    3.025949576521216E-039
  2.700000000000001E-003    5.047549518552633E-039
  2.800000000000001E-003    7.119477053647773E-039
  2.900000000000001E-003    9.011365887329182E-039
  3.000000000000001E-003    1.044243813340325E-038
  3.100000000000001E-003    1.109960138597979E-038
  3.200000000000001E-003    1.066492937253112E-038
  3.300000000000001E-003    8.852010879288752E-039
  3.400000000000001E-003    5.449419104985627E-039
  3.500000000000001E-003    3.682136553169570E-040
  3.600000000000001E-003   -6.311055803945830E-039
  3.700000000000001E-003   -1.429758656387929E-038
  3.800000000000001E-003   -2.306244696517619E-038
  3.900000000000001E-003   -3.183061896957770E-038
  4.000000000000001E-003   -3.959959074189717E-038
  4.100000000000001E-003   -4.518977968528723E-038
  4.200000000000001E-003   -4.732994487922038E-038
  4.300000000000001E-003   -4.477722862438088E-038
  4.400000000000001E-003   -3.646748239590483E-038
  4.500000000000001E-003   -2.168678352559621E-038
  4.600000000000002E-003   -2.499351952057439E-040
  4.700000000000001E-003    2.733268309828207E-038
  4.800000000000001E-003    5.972229540988893E-038
  4.900000000000002E-003    9.467711417886545E-038
  5.000000000000001E-003    1.290599094024936E-037
  5.100000000000001E-003    1.589482598852568E-037
  5.200000000000001E-003    1.798615538683738E-037
  5.300000000000002E-003    1.871090818866886E-037
  5.400000000000001E-003    1.762505510400743E-037
  5.500000000000001E-003    1.436459889558318E-037
  5.600000000000002E-003    8.705562268898380E-038
  5.700000000000001E-003    6.235701994634805E-039
  5.800000000000001E-003   -9.653658332169358E-038
  5.900000000000002E-003   -2.160836641248281E-037
  6.000000000000001E-003   -3.441693448882118E-037
  6.100000000000001E-003   -4.696302875601360E-037
  6.200000000000002E-003   -5.788490994628709E-037
  6.300000000000002E-003   -6.565961374591186E-037
  6.400000000000001E-003   -6.872308432483802E-037
  6.500000000000001E-003   -6.562148187330419E-037
  6.600000000000002E-003   -5.518429840119282E-037
  6.700000000000001E-003   -3.670591685705479E-037
  6.800000000000001E-003   -1.011846123514972E-037
  6.900000000000002E-003    2.386347226613585E-037
  7.000000000000001E-003    6.364642991104942E-037
  7.100000000000001E-003    1.067288762003171E-036
  7.200000000000002E-003    1.497543864784242E-036
  7.300000000000002E-003    1.886568594688431E-036
  7.400000000000001E-003    2.188991264759511E-036
  7.500000000000001E-003    2.357980910844373E-036
  7.600000000000002E-003    2.349191318763564E-036
  7.700000000000001E-003    2.125140877847605E-036
  7.800000000000001E-003    1.659696697276373E-036
  7.900000000000001E-003    9.422857727013526E-037
  8.000000000000002E-003   -1.855487605354069E-038
  8.100000000000001E-003   -1.192647877962901E-036
  8.200000000000001E-003   -2.526956141378285E-036
  8.300000000000002E-003   -3.945863960551593E-036
  8.400000000000001E-003   -5.353034582455677E-036
  8.500000000000002E-003   -6.634787514555648E-036
  8.600000000000002E-003   -7.664859242668419E-036
  8.700000000000001E-003   -8.310306454153834E-036
  8.800000000000002E-003   -8.438357552878268E-036
  8.900000000000002E-003   -7.924008167003853E-036
  9.000000000000001E-003   -6.658301651417010E-036
  9.100000000000002E-003   -4.557352810283571E-036
  9.200000000000002E-003   -1.572320475305660E-036
  9.300000000000001E-003    2.299396634319303E-036
  9.400000000000002E-003    7.001501585538825E-036
  9.500000000000001E-003    1.240464037820601E-035
  9.600000000000001E-003    1.829114098961361E-035
  9.700000000000002E-003    2.433971375745181E-035
  9.800000000000001E-003    3.011212046715150E-035
  9.900000000000001E-003    3.504483195235177E-035
  1.000000000000000E-002    3.844981974033165E-035
  1.010000000000000E-002    3.952950305362264E-035
  1.020000000000000E-002    3.741143661348233E-035
  1.030000000000000E-002    3.120793812659341E-035
  1.040000000000000E-002    2.010486900883992E-035
  1.050000000000000E-002    3.481038583104078E-036
  1.060000000000000E-002   -1.894385448879828E-035
  1.070000000000000E-002   -4.694026786028411E-035
  1.080000000000000E-002   -7.959243747534531E-035
  1.090000000000000E-002   -1.151353349092119E-034
  1.100000000000000E-002   -1.508319999913535E-034
  1.110000000000000E-002   -1.829240493819224E-034
  1.120000000000000E-002   -2.066909446819287E-034
  1.130000000000000E-002   -2.166524816172264E-034
  1.140000000000000E-002   -2.069428988594314E-034
  1.150000000000000E-002   -1.718722527990071E-034
  1.160000000000000E-002   -1.066720537388120E-034
  1.170000000000000E-002   -8.395976966345931E-036
  1.180000000000000E-002    1.230840930321003E-034
  1.190000000000000E-002    2.840801270118611E-034
  1.200000000000000E-002    4.662142375903449E-034
  1.210000000000000E-002    6.558242435533672E-034
  1.220000000000000E-002    8.338162545628061E-034
  1.230000000000000E-002    9.761387741886698E-034
  1.240000000000000E-002    1.055021308413235E-033
  1.250000000000000E-002    1.041079821498304E-033
  1.260000000000000E-002    9.063076204265885E-034
  1.270000000000000E-002    6.278696994509156E-034
  1.280000000000000E-002    1.924859741007761E-034
  1.290000000000000E-002   -3.989518545597162E-034
  1.300000000000000E-002   -1.127022840251721E-033
  1.310000000000000E-002   -1.950301373201606E-033
  1.320000000000000E-002   -2.803463759617026E-033
  1.330000000000000E-002   -3.597695061112595E-033
  1.340000000000000E-002   -4.224055078018071E-033
  1.350000000000000E-002   -4.560287176725105E-033
  1.360000000000000E-002   -4.481286674602966E-033
  1.370000000000000E-002   -3.873042641073588E-033
  1.380000000000000E-002   -2.649403740855396E-033
  1.390000000000000E-002   -7.704617093082749E-034
  1.400000000000000E-002    1.739188507170151E-033
  1.410000000000000E-002    4.774554479783550E-033
  1.420000000000000E-002    8.139326866588943E-033
  1.430000000000000E-002    1.154267362772674E-032
  1.440000000000000E-002    1.460633611975755E-032
  1.450000000000000E-002    1.688412429204790E-032
  1.460000000000000E-002    1.789497074355387E-032
  1.470000000000000E-002    1.716940384428170E-032
  1.480000000000000E-002    1.430763467222663E-032
  1.490000000000000E-002    9.045565866195140E-033
  1.500000000000000E-002    1.323049737541747E-033
  1.510000000000000E-002   -8.653095352255708E-033
  1.520000000000000E-002   -2.036026734794914E-032
  1.530000000000000E-002   -3.293505044088101E-032
  1.540000000000000E-002   -4.518145872353413E-032
  1.550000000000000E-002   -5.562032609167776E-032
  1.560000000000000E-002   -6.258509018910532E-032
  1.570000000000000E-002   -6.436498536007546E-032
  1.580000000000000E-002   -5.939132774437574E-032
  1.590000000000000E-002   -4.645626442491099E-032
  1.600000000000000E-002   -2.494680836555590E-032
  1.610000000000000E-002    4.929405392682757E-033
  1.620000000000000E-002    4.195535990168511E-032
  1.630000000000000E-002    8.378445307421369E-032
  1.640000000000000E-002    1.269206965408333E-031
  1.650000000000000E-002    1.668273475106877E-031
  1.660000000000000E-002    1.981838539041489E-031
  1.670000000000000E-002    2.152987949650479E-031
  1.680000000000000E-002    2.126697955664223E-031
  1.690000000000000E-002    1.856622511511351E-031
  1.700000000000000E-002    1.312570639140254E-031
  1.710000000000000E-002    4.879751839832291E-032
  1.720000000000000E-002   -5.935178645304394E-032
  1.730000000000000E-002   -1.873322538191139E-031
  1.740000000000000E-002   -3.256058918462551E-031
  1.750000000000000E-002   -4.611486788383414E-031
  1.760000000000000E-002   -5.780928487550953E-031
  1.770000000000000E-002   -6.588509035327390E-031
  1.780000000000000E-002   -6.857096333670369E-031
  1.790000000000000E-002   -6.428194459168248E-031
  1.800000000000000E-002   -5.184453107771833E-031
  1.810000000000000E-002   -3.072788892582560E-031
  1.820000000000000E-002   -1.256066848817686E-032
  1.830000000000000E-002    3.522804296988004E-031
  1.840000000000000E-002    7.627711562071919E-031
  1.850000000000000E-002    1.183604383773263E-030
  1.860000000000000E-002    1.570141762270110E-030
  1.870000000000000E-002    1.871333384917651E-030