 -4.000000000000000E-002    0.000000000000000E+000
 -3.990000000000000E-002    0.000000000000000E+000
 -3.980000000000000E-002    0.000000000000000E+000
 -3.970000000000000E-002    0.000000000000000E+000
 -3.960000000000000E-002    0.000000000000000E+000
 -3.950000000000000E-002    0.000000000000000E+000
 -3.940000000000000E-002    0.000000000000000E+000
 -3.930000000000000E-002    0.000000000000000E+000
 -3.920000000000000E-002    0.000000000000000E+000
 -3.910000000000000E-002    0.000000000000000E+000
 -3.900000000000000E-002    0.000000000000000E+000
 -3.890000000000000E-002    0.000000000000000E+000
 -3.880000000000000E-002    0.000000000000000E+000
 -3.870000000000000E-002    0.000000000000000E+000
 -3.860000000000000E-002    0.000000000000000E+000
 -3.850000000000000E-002    0.000000000000000E+000
 -3.840000000000000E-002    0.000000000000000E+000
 -3.830000000000000E-002    0.000000000000000E+000
 -3.820000000000000E-002    0.000000000000000E+000
 -3.810000000000000E-002    0.000000000000000E+000
 -3.800000000000000E-002    0.000000000000000E+000
 -3.790000000000000E-002    0.000000000000000E+000
 -3.780000000000000E-002    0.000000000000000E+000
 -3.770000000000000E-002    0.000000000000000E+000
 -3.760000000000000E-002    0.000000000000000E+000
 -3.750000000000000E-002    0.000000000000000E+000
 -3.740000000000000E-002    0.000000000000000E+000
 -3.730000000000000E-002    0.000000000000000E+000
 -3.720000000000000E-002    0.000000000000000E+000
 -3.710000000000000E-002    0.000000000000000E+000
 -3.700000000000000E-002    0.000000000000000E+000
 -3.690000000000000E-002    0.000000000000000E+000
 -3.680000000000000E-002    0.000000000000000E+000
 -3.670000000000000E-002    0.000000000000000E+000
 -3.660000000000000E-002    0.000000000000000E+000
 -3.650000000000000E-002    0.000000000000000E+000
 -3.640000000000000E-002    0.000000000000000E+000
 -3.630000000000000E-002    0.000000000000000E+000
 -3.620000000000000E-002    0.000000000000000E+000
 -3.610000000000000E-002    0.000000000000000E+000
 -3.600000000000000E-002    0.000000000000000E+000
 -3.590000000000000E-002    0.000000000000000E+000
 -3.580000000000000E-002    0.000000000000000E+000
 -3.570000000000000E-002    0.000000000000000E+000
 -3.560000000000000E-002    0.000000000000000E+000
 -3.550000000000000E-002    0.000000000000000E+000
 -3.540000000000000E-002    0.000000000000000E+000
 -3.530000000000000E-002    0.000000000000000E+000
 -3.520000000000000E-002    0.000000000000000E+000
 -3.510000000000000E-002    0.000000000000000E+000
 -3.500000000000000E-002    0.000000000000000E+000
 -3.490000000000000E-002    0.000000000000000E+000
 -3.480000000000000E-002    0.000000000000000E+000
 -3.470000000000000E-002    0.000000000000000E+000
 -3.460000000000000E-002    0.000000000000000E+000
 -3.450000000000000E-002    0.000000000000000E+000
 -3.440000000000000E-002    0.000000000000000E+000
 -3.430000000000000E-002    0.000000000000000E+000
 -3.420000000000000E-002    0.000000000000000E+000
 -3.410000000000000E-002    0.000000000000000E+000
 -3.400000000000000E-002    0.000000000000000E+000
 -3.390000000000000E-002    0.000000000000000E+000
 -3.380000000000000E-002    0.000000000000000E+000
 -3.370000000000000E-002    0.000000000000000E+000
 -3.360000000000000E-002    0.000000000000000E+000
 -3.350000000000000E-002    0.000000000000000E+000
 -3.340000000000000E-002    0.000000000000000E+000
 -3.330000000000000E-002    0.000000000000000E+000
 -3.320000000000000E-002    0.000000000000000E+000
 -3.310000000000000E-002    0.000000000000000E+000
 -3.300000000000000E-002    0.000000000000000E+000
 -3.290000000000000E-002    0.000000000000000E+000
 -3.280000000000000E-002    0.000000000000000E+000
 -3.270000000000000E-002    0.000000000000000E+000
 -3.260000000000000E-002    0.000000000000000E+000
 -3.250000000000000E-002    0.000000000000000E+000
 -3.240000000000000E-002    0.000000000000000E+000
 -3.230000000000000E-002    0.000000000000000E+000
 -3.220000000000000E-002    0.000000000000000E+000
 -3.210000000000000E-002    0.000000000000000E+000
 -3.200000000000000E-002    0.000000000000000E+000
 -3.190000000000000E-002    0.000000000000000E+000
 -3.180000000000000E-002    0.000000000000000E+000
 -3.170000000000000E-002    0.000000000000000E+000
 -3.160000000000000E-002    0.000000000000000E+000
 -3.150000000000000E-002    0.000000000000000E+000
 -3.140000000000000E-002    0.000000000000000E+000
 -3.130000000000000E-002    0.000000000000000E+000
 -3.120000000000000E-002    0.000000000000000E+000
 -3.110000000000000E-002    0.000000000000000E+000
 -3.100000000000000E-002    0.000000000000000E+000
 -3.090000000000000E-002    0.000000000000000E+000
 -3.080000000000000E-002    0.000000000000000E+000
 -3.070000000000000E-002    0.000000000000000E+000
 -3.060000000000000E-002    0.000000000000000E+000
 -3.050000000000000E-002    0.000000000000000E+000
 -3.040000000000000E-002    0.000000000000000E+000
 -3.030000000000000E-002    0.000000000000000E+000
 -3.020000000000000E-002    0.000000000000000E+000
 -3.010000000000000E-002    0.000000000000000E+000
 -3.000000000000000E-002    0.000000000000000E+000
 -2.990000000000000E-002    0.000000000000000E+000
 -2.980000000000000E-002    0.000000000000000E+000
 -2.970000000000000E-002    0.000000000000000E+000
 -2.960000000000000E-002    0.000000000000000E+000
 -2.950000000000000E-002    0.000000000000000E+000
 -2.940000000000000E-002    0.000000000000000E+000
 -2.930000000000000E-002    0.000000000000000E+000
 -2.920000000000000E-002    0.000000000000000E+000
 -2.910000000000000E-002    0.000000000000000E+000
 -2.900000000000000E-002    0.000000000000000E+000
 -2.890000000000000E-002    0.000000000000000E+000
 -2.880000000000000E-002    0.000000000000000E+000
 -2.870000000000000E-002    0.000000000000000E+000
 -2.860000000000000E-002    0.000000000000000E+000
 -2.850000000000000E-002    0.000000000000000E+000
 -2.840000000000000E-002    0.000000000000000E+000
 -2.830000000000000E-002    0.000000000000000E+000
 -2.820000000000000E-002    0.000000000000000E+000
 -2.810000000000000E-002    0.000000000000000E+000
 -2.800000000000000E-002    0.000000000000000E+000
 -2.790000000000000E-002    0.000000000000000E+000
 -2.780000000000000E-002    0.000000000000000E+000
 -2.770000000000000E-002    0.000000000000000E+000
 -2.760000000000000E-002    0.000000000000000E+000
 -2.750000000000000E-002    0.000000000000000E+000
 -2.740000000000000E-002    0.000000000000000E+000
 -2.730000000000000E-002    0.000000000000000E+000
 -2.720000000000000E-002    0.000000000000000E+000
 -2.710000000000000E-002    0.000000000000000E+000
 -2.700000000000000E-002    0.000000000000000E+000
 -2.690000000000000E-002    0.000000000000000E+000
 -2.680000000000000E-002    0.000000000000000E+000
 -2.670000000000000E-002    0.000000000000000E+000
 -2.660000000000000E-002    0.000000000000000E+000
 -2.650000000000000E-002    0.000000000000000E+000
 -2.640000000000000E-002    0.000000000000000E+000
 -2.630000000000000E-002    0.000000000000000E+000
 -2.620000000000000E-002    0.000000000000000E+000
 -2.610000000000000E-002    0.000000000000000E+000
 -2.600000000000000E-002    0.000000000000000E+000
 -2.590000000000000E-002    0.000000000000000E+000
 -2.580000000000000E-002    0.000000000000000E+000
 -2.570000000000000E-002    0.000000000000000E+000
 -2.560000000000000E-002    0.000000000000000E+000
 -2.550000000000000E-002    0.000000000000000E+000
 -2.540000000000000E-002    0.000000000000000E+000
 -2.530000000000000E-002    0.000000000000000E+000
 -2.520000000000000E-002    0.000000000000000E+000
 -2.510000000000000E-002    0.000000000000000E+000
 -2.500000000000000E-002    0.000000000000000E+000
 -2.490000000000000E-002    0.000000000000000E+000
 -2.480000000000000E-002    0.000000000000000E+000
 -2.470000000000000E-002    0.000000000000000E+000
 -2.460000000000000E-002    0.000000000000000E+000
 -2.450000000000000E-002    0.000000000000000E+000
 -2.440000000000000E-002    0.000000000000000E+000
 -2.430000000000000E-002    0.000000000000000E+000
 -2.420000000000000E-002    0.000000000000000E+000
 -2.410000000000000E-002    0.000000000000000E+000
 -2.400000000000000E-002    0.000000000000000E+000
 -2.390000000000000E-002    0.000000000000000E+000
 -2.380000000000000E-002    0.000000000000000E+000
 -2.370000000000000E-002    0.000000000000000E+000
 -2.360000000000000E-002    0.000000000000000E+000
 -2.350000000000000E-002    0.000000000000000E+000
 -2.340000000000000E-002    0.000000000000000E+000
 -2.330000000000000E-002    0.000000000000000E+000
 -2.320000000000000E-002    0.000000000000000E+000
 -2.310000000000000E-002    0.000000000000000E+000
 -2.300000000000000E-002    0.000000000000000E+000
 -2.290000000000000E-002    0.000000000000000E+000
 -2.280000000000000E-002    0.000000000000000E+000
 -2.270000000000000E-002    0.000000000000000E+000
 -2.260000000000000E-002    0.000000000000000E+000
 -2.250000000000000E-002    0.000000000000000E+000
 -2.240000000000000E-002    0.000000000000000E+000
 -2.230000000000000E-002    0.000000000000000E+000
 -2.220000000000000E-002    0.000000000000000E+000
 -2.210000000000000E-002    0.000000000000000E+000
 -2.200000000000000E-002    0.000000000000000E+000
 -2.190000000000000E-002    0.000000000000000E+000
 -2.180000000000000E-002    0.000000000000000E+000
 -2.170000000000000E-002    0.000000000000000E+000
 -2.160000000000000E-002    0.000000000000000E+000
 -2.150000000000000E-002    0.000000000000000E+000
 -2.140000000000000E-002    0.000000000000000E+000
 -2.130000000000000E-002    0.000000000000000E+000
 -2.120000000000000E-002    0.000000000000000E+000
 -2.110000000000000E-002    0.000000000000000E+000
 -2.100000000000000E-002    0.000000000000000E+000
 -2.090000000000000E-002    0.000000000000000E+000
 -2.080000000000000E-002    0.000000000000000E+000
 -2.070000000000000E-002    0.000000000000000E+000
 -2.060000000000000E-002    0.000000000000000E+000
 -2.050000000000000E-002    0.000000000000000E+000
 -2.040000000000000E-002    0.000000000000000E+000
 -2.030000000000000E-002    0.000000000000000E+000
 -2.020000000000000E-002    0.000000000000000E+000
 -2.010000000000000E-002    0.000000000000000E+000
 -2.000000000000000E-002    0.000000000000000E+000
 -1.990000000000000E-002    0.000000000000000E+000
 -1.980000000000000E-002    0.000000000000000E+000
 -1.970000000000000E-002    0.000000000000000E+000
 -1.960000000000000E-002    0.000000000000000E+000
 -1.950000000000000E-002    0.000000000000000E+000
 -1.940000000000000E-002    0.000000000000000E+000
 -1.930000000000000E-002    0.000000000000000E+000
 -1.920000000000000E-002    0.000000000000000E+000
 -1.910000000000000E-002    0.000000000000000E+000
 -1.900000000000000E-002    0.000000000000000E+000
 -1.890000000000000E-002    0.000000000000000E+000
 -1.880000000000000E-002    0.000000000000000E+000
 -1.870000000000000E-002    0.000000000000000E+000
 -1.860000000000000E-002    0.000000000000000E+000
 -1.850000000000000E-002    0.000000000000000E+000
 -1.840000000000000E-002    0.000000000000000E+000
 -1.830000000000000E-002    0.000000000000000E+000
 -1.820000000000000E-002    0.000000000000000E+000
 -1.810000000000000E-002    0.000000000000000E+000
 -1.800000000000000E-002    0.000000000000000E+000
 -1.790000000000000E-002    0.000000000000000E+000
 -1.780000000000000E-002    0.000000000000000E+000
 -1.770000000000000E-002    0.000000000000000E+000
 -1.760000000000000E-002   -2.565854121688508E-047
 -1.750000000000000E-002   -2.157319588761740E-046
 -1.740000000000000E-002   -4.058053765354630E-046
 -1.730000000000000E-002   -5.958787941947519E-046
 -1.720000000000000E-002   -7.859522118540409E-046
 -1.710000000000000E-002   -9.503670882964447E-046
 -1.700000000000000E-002   -1.095738271480524E-045
 -1.690000000000000E-002   -1.044621401701093E-045
 -1.680000000000000E-002   -4.681867260733446E-046
 -1.670000000000000E-002    4.563216083518757E-046
 -1.660000000000000E-002    1.919177231888196E-045
 -1.650000000000000E-002    4.905701677242386E-045
 -1.640000000000000E-002    8.366427058665463E-045
 -1.630000000000000E-002    1.085466017799021E-044
 -1.620000000000000E-002    1.327273273427721E-044
 -1.610000000000000E-002    1.488873614437569E-044
 -1.600000000000000E-002    1.424683602854472E-044
 -1.590000000000000E-002    1.101077202174019E-044
 -1.580000000000000E-002    3.986341847997460E-045
 -1.570000000000000E-002   -7.692870199473755E-045
 -1.560000000000000E-002   -2.443405868232772E-044
 -1.550000000000000E-002   -4.672359873009409E-044
 -1.540000000000000E-002   -7.184907570812527E-044
 -1.530000000000000E-002   -9.840418903652527E-044
 -1.520000000000000E-002   -1.220462307739554E-043
 -1.510000000000000E-002   -1.383079805222901E-043
 -1.500000000000000E-002   -1.396554306625081E-043
 -1.490000000000000E-002   -1.176300503428637E-043
 -1.480000000000000E-002   -6.299356070194799E-044
 -1.470000000000000E-002    3.046368209634125E-044
 -1.460000000000000E-002    1.681521298488967E-043
 -1.450000000000000E-002    3.479918848795454E-043
 -1.440000000000000E-002    5.613032077908933E-043
 -1.430000000000000E-002    7.900718982371727E-043
 -1.420000000000000E-002    1.003937082622340E-042
 -1.410000000000000E-002    1.158281538870636E-042
 -1.400000000000000E-002    1.198836525497220E-042
 -1.390000000000000E-002    1.060580579154544E-042
 -1.380000000000000E-002    6.766715676205283E-043
 -1.370000000000000E-002   -9.914782483895993E-045
 -1.360000000000000E-002   -1.033820923226286E-042
 -1.350000000000000E-002   -2.392029809270548E-042
 -1.340000000000000E-002   -4.023342191569445E-042
 -1.330000000000000E-002   -5.790794231293459E-042
 -1.320000000000000E-002   -7.470003957872613E-042
 -1.310000000000000E-002   -8.742184571056902E-042
 -1.300000000000000E-002   -9.201175968432160E-042
 -1.290000000000000E-002   -8.385220807836141E-042
 -1.280000000000000E-002   -5.819309633661278E-042
 -1.270000000000000E-002   -1.095298335395280E-042
 -1.260000000000000E-002    6.034970793663449E-042
 -1.250000000000000E-002    1.554019386333909E-041
 -1.240000000000000E-002    2.698675388313936E-041
 -1.230000000000000E-002    3.941891164447532E-041
 -1.220000000000000E-002    5.127930293495904E-041
 -1.210000000000000E-002    6.038358418674772E-041
 -1.200000000000000E-002    6.399263231812487E-041
 -1.190000000000000E-002    5.900466771108326E-041
 -1.180000000000000E-002    4.230060532973228E-041
 -1.170000000000000E-002    1.123858655929777E-041
 -1.160000000000000E-002   -3.569015211312806E-041
 -1.150000000000000E-002   -9.811269470177418E-041
 -1.140000000000000E-002   -1.729863557632625E-040
 -1.130000000000000E-002   -2.538987815413402E-040
 -1.120000000000000E-002   -3.305989767543808E-040
 -1.110000000000000E-002   -3.889526650291400E-040
 -1.100000000000000E-002   -4.115027852776715E-040
 -1.090000000000000E-002   -3.788190709911176E-040
 -1.080000000000000E-002   -2.717555599465334E-040
 -1.070000000000000E-002   -7.465687633746326E-041
 -1.060000000000000E-002    2.206066088824350E-040
 -1.050000000000000E-002    6.100555628540368E-040
 -1.040000000000000E-002    1.072980179211367E-039
 -1.030000000000000E-002    1.568007898640056E-039
 -1.020000000000000E-002    2.030788208305742E-039
 -1.010000000000000E-002    2.374360721969571E-039
 -1.000000000000000E-002    2.493290043052130E-039
 -9.899999999999999E-003    2.272511027099124E-039
 -9.800000000000000E-003    1.601460409853953E-039
 -9.699999999999999E-003    3.934844172479388E-040
 -9.599999999999999E-003   -1.390357118073121E-039
 -9.500000000000000E-003   -3.715020261400261E-039
 -9.399999999999999E-003   -6.445878668997646E-039
 -9.299999999999999E-003   -9.328128835871090E-039
 -9.200000000000000E-003   -1.197653292010099E-038
 -9.099999999999999E-003   -1.388138832678017E-038
 -8.999999999999999E-003   -1.443648878464635E-038
 -8.900000000000000E-003   -1.299372092427043E-038
 -8.799999999999999E-003   -8.946649484498263E-039
 -8.699999999999999E-003   -1.841857791078382E-039
 -8.600000000000000E-003    8.488041422260913E-039
 -8.499999999999999E-003    2.178167814706029E-038
 -8.399999999999999E-003    3.721471819368819E-038
 -8.300000000000000E-003    5.329845318625492E-038
 -8.199999999999999E-003    6.784004425674592E-038
 -8.100000000000000E-003    7.799520890815984E-038
 -8.000000000000000E-003    8.044209043976379E-038
 -7.899999999999999E-003    7.169765646482749E-038
 -7.800000000000000E-003    4.858443225128097E-038
 -7.699999999999999E-003    8.835370808932006E-039
 -7.599999999999999E-003   -4.820138359551683E-038
 -7.499999999999999E-003   -1.208262382872817E-037
 -7.399999999999999E-003   -2.043202014233500E-037
 -7.299999999999999E-003   -2.904732507864317E-037
 -7.199999999999999E-003   -3.674564759235439E-037
 -7.100000000000000E-003   -4.201899189608660E-037
 -6.999999999999999E-003   -4.313411799950418E-037
 -6.899999999999999E-003   -3.830456918573782E-037
 -6.800000000000000E-003   -2.593655751715505E-037
 -6.699999999999999E-003   -4.939895130294834E-038
 -6.599999999999999E-003    2.491793224344545E-037
 -6.499999999999999E-003    6.265113514914589E-037
 -6.399999999999999E-003    1.057397108280526E-036
 -6.299999999999999E-003    1.499219004335729E-036
 -6.199999999999999E-003    1.891662654816470E-036
 -6.100000000000000E-003    2.158941077161518E-036
 -5.999999999999999E-003    2.215119915131512E-036
 -5.899999999999999E-003    1.972901859701814E-036
 -5.800000000000000E-003    1.355844995994939E-036
 -5.699999999999999E-003    3.134798478861792E-037
 -5.599999999999999E-003   -1.161837343232710E-036
 -5.499999999999999E-003   -3.018166428370579E-036
 -5.399999999999999E-003   -5.129800675186509E-036
 -5.299999999999999E-003   -7.288650058758210E-036
 -5.199999999999999E-003   -9.204435399973232E-036
 -5.099999999999999E-003   -1.051680678867230E-035
 -4.999999999999999E-003   -1.082187130157367E-035
 -4.899999999999999E-003   -9.714394507690338E-036
 -4.799999999999999E-003   -6.845114630198198E-036
 -4.699999999999999E-003   -1.990227540950452E-036
 -4.599999999999999E-003    4.872682110985414E-036
 -4.499999999999999E-003    1.349090575158686E-035
 -4.399999999999999E-003    2.327637988607825E-035
 -4.299999999999999E-003    3.327222284508127E-035
 -4.199999999999999E-003    4.216001250558602E-035
 -4.099999999999999E-003    4.832070180360904E-035
 -3.999999999999999E-003    4.995882674054216E-035
 -3.899999999999999E-003    4.529383877327759E-035
 -3.799999999999999E-003    3.281419058749157E-035
 -3.699999999999999E-003    1.157936531980355E-035
 -3.599999999999999E-003   -1.845669747576770E-035
 -3.499999999999999E-003   -5.613924710591191E-035
 -3.399999999999999E-003   -9.887216706194316E-035
 -3.299999999999999E-003   -1.424988788372829E-034
 -3.199999999999999E-003   -1.813613741493666E-034
 -3.099999999999999E-003   -2.085877119195360E-034
 -2.999999999999999E-003   -2.166423590789261E-034
 -2.899999999999999E-003   -1.981480905708635E-034
 -2.799999999999999E-003   -1.469529491515841E-034
 -2.699999999999999E-003   -5.937246994681982E-035
 -2.599999999999999E-003    6.450918893795182E-035
 -2.499999999999999E-003    2.196414459347399E-034
 -2.399999999999999E-003    3.951122222078063E-034
 -2.299999999999999E-003    5.737759334100178E-034
 -2.199999999999999E-003    7.326220478919378E-034
 -2.099999999999999E-003    8.440666184437795E-034
 -1.999999999999999E-003    8.782781028332702E-034
 -1.899999999999999E-003    8.065398473180200E-034
 -1.799999999999999E-003    6.055074872240099E-034
 -1.699999999999999E-003    2.620517685980505E-034
 -1.599999999999999E-003   -2.218003105913323E-034
 -1.499999999999999E-003   -8.244776612836612E-034
 -1.399999999999999E-003   -1.501805022521154E-033
 -1.299999999999999E-003   -2.186099502607089E-033
 -1.199999999999999E-003   -2.788206473157289E-033
 -1.099999999999999E-003   -3.203089741517846E-033
 -9.999999999999989E-004   -3.319284034975170E-033
 -8.999999999999990E-004   -3.032077568241132E-033
 -7.999999999999990E-004   -2.259735947473098E-033
 -6.999999999999989E-004   -9.614500015227344E-034
 -5.999999999999990E-004    8.449428803076758E-034
 -4.999999999999989E-004    3.067970657300577E-033
 -3.999999999999989E-004    5.533145405240407E-033
 -2.999999999999989E-004    7.982144001867538E-033
 -1.999999999999989E-004    1.008320680716312E-032
 -9.999999999999892E-005    1.145463742983678E-032
  1.084202172485504E-018    1.170204147638867E-032
  1.000000000000011E-004    1.046822762700487E-032
  2.000000000000011E-004    7.492626828398330E-033
  3.000000000000011E-004    2.674843523526269E-033
  4.000000000000011E-004   -3.865188694972561E-033
  5.000000000000011E-004   -1.173972960400930E-032
  6.000000000000011E-004   -2.026865745222593E-032
  7.000000000000011E-004   -2.848785448652472E-032
  8.000000000000011E-004   -3.519898210906695E-032
  9.000000000000012E-004   -3.906580568797577E-032
  1.000000000000001E-003   -3.875730323924231E-032
  1.100000000000001E-003   -3.313138818062204E-032
  1.200000000000001E-003   -2.144567559728122E-032
  1.300000000000001E-003   -3.574074243543957E-033
  1.400000000000001E-003    1.979899205504434E-032
  1.500000000000001E-003    4.703994344847956E-032
  1.600000000000001E-003    7.551809509902386E-032
  1.700000000000001E-003    1.016811900770831E-031
  1.800000000000001E-003    1.212795118662587E-031
  1.900000000000001E-003    1.297504450005045E-031
  2.000000000000001E-003    1.227566313651775E-031
  2.100000000000001E-003    9.684777372215361E-032
  2.200000000000001E-003    5.019048177745119E-032
  2.300000000000001E-003   -1.671477943806371E-032
  2.400000000000001E-003   -1.004318643081265E-031
  2.500000000000001E-003   -1.942180036080904E-031
  2.600000000000001E-003   -2.880008037414974E-031
  2.700000000000001E-003   -3.688058988926580E-031
  2.800000000000001E-003   -4.217056848983742E-031
  2.900000000000001E-003   -4.313078552051396E-031
  3.000000000000001E-003   -3.837345100964648E-031
  3.100000000000001E-003   -2.689612243730845E-031
  3.200000000000001E-003   -8.329923953749881E-032
  3.300000000000001E-003    1.682766112382660E-031
  3.400000000000001E-003    4.703152109108372E-031
  3.500000000000001E-003    7.959846355402062E-031
  3.600000000000001E-003    1.107456146510708E-030
  3.700000000000001E-003    1.357889815463403E-030
  3.800000000000001E-003    1.495206957174453E-030
  3.900000000000001E-003    1.467643435118173E-030
  4.000000000000001E-003    1.230839791437315E-030
  4.100000000000001E-003    7.559446230430507E-031
  4.200000000000001E-003    3.792893383908968E-032
  4.300000000000001E-003   -8.969438512745706E-031
  4.400000000000001E-003   -1.985728219030254E-030
  4.500000000000001E-003   -3.126787736986444E-030
  4.600000000000002E-003   -4.182377637739025E-030
  4.700000000000001E-003   -4.986751227640647E-030
  4.800000000000001E-003   -5.360247941729023E-030
  4.900000000000002E-003   -5.129155077631943E-030
  5.000000000000001E-003   -4.150310016451125E-030
  5.100000000000001E-003   -2.338509764935534E-030
  5.200000000000001E-003    3.061059143797170E-031
  5.300000000000002E-003    3.674298909468716E-030
  5.400000000000001E-003    7.531700529001770E-030
  5.500000000000001E-003    1.151469651445150E-029
  5.600000000000002E-003    1.514199911291678E-029
  5.700000000000001E-003    1.784463741031348E-029
  5.800000000000001E-003    1.901543739550458E-029
  5.900000000000002E-003    1.807682767980523E-029
  6.000000000000001E-003    1.456311292008404E-029
  6.100000000000001E-003    8.210479351413123E-030
  6.200000000000002E-003   -9.547831614912329E-031
  6.300000000000002E-003   -1.254162305019303E-029
  6.400000000000001E-003   -2.574625496328364E-029
  6.500000000000001E-003   -3.934401793350776E-029
  6.600000000000002E-003   -5.173250799621201E-029
  6.700000000000001E-003   -6.103387582256924E-029
  6.800000000000001E-003   -6.525866490247481E-029
  6.900000000000002E-003   -6.252638738403833E-029
  7.000000000000001E-003   -5.132955687181448E-029
  7.100000000000001E-003   -3.081907885392564E-029
  7.200000000000002E-003   -1.080553384558019E-030
  7.300000000000002E-003    3.663552816031399E-029
  7.400000000000001E-003    7.977019012109759E-029
  7.500000000000001E-003    1.244388182900469E-028
  7.600000000000002E-003    1.655742760496818E-028
  7.700000000000001E-003    1.972527289871743E-028
  7.800000000000001E-003    2.132069280849987E-028
  7.900000000000001E-003    2.075100129796276E-028
  8.000000000000002E-003    1.753870211756683E-028
  8.100000000000001E-003    1.140852699813294E-028
  8.200000000000001E-003    2.371043517609328E-029
  8.300000000000002E-003   -9.208298501314024E-029
  8.400000000000001E-003   -2.256673192339982E-028
  8.500000000000002E-003   -3.653998287683864E-028
  8.600000000000002E-003   -4.960605591914867E-028
  8.700000000000001E-003   -5.998313334623809E-028
  8.800000000000002E-003   -6.578251643663526E-028
  8.900000000000002E-003   -6.521100190904169E-028
  9.000000000000001E-003   -5.680972601381578E-028
  9.100000000000002E-003   -3.970893927364486E-028
  9.200000000000002E-003   -1.387146977893919E-028
  9.300000000000001E-003    1.970736639035475E-028
  9.400000000000002E-003    5.887777026065265E-028
  9.500000000000001E-003    1.003242712442588E-027
  9.600000000000001E-003    1.396921575334225E-027
  9.700000000000002E-003    1.718679571462608E-027
  9.800000000000001E-003    1.914152199532410E-027
  9.900000000000001E-003    1.931483956231436E-027
  1.000000000000000E-002    1.728069827674285E-027
  1.010000000000000E-002    1.277713445371051E-027
  1.020000000000000E-002    5.774346012636355E-028
  1.030000000000000E-002   -3.469703108422771E-028
  1.040000000000000E-002   -1.437561505569080E-027
  1.050000000000000E-002   -2.603973407391127E-027
  1.060000000000000E-002   -3.726933527381922E-027
  1.070000000000000E-002   -4.665997703218818E-027
  1.080000000000000E-002   -5.271501132322442E-027
  1.090000000000000E-002   -5.400218464191211E-027
  1.100000000000000E-002   -4.933668088586905E-027
  1.110000000000000E-002   -3.797445870438554E-027
  1.120000000000000E-002   -1.979505320421584E-027
  1.130000000000000E-002    4.550240676307084E-028
  1.140000000000000E-002    3.354990404690073E-027
  1.150000000000000E-002    6.482673599598258E-027
  1.160000000000000E-002    9.523372231961971E-027
  1.170000000000000E-002    1.210612927972753E-026
  1.180000000000000E-002    1.383548486432674E-026
  1.190000000000000E-002    1.433280132315302E-026
  1.200000000000000E-002    1.328425318875281E-026
  1.210000000000000E-002    1.049117933082931E-026
  1.220000000000000E-002    5.917299839839286E-027
  1.230000000000000E-002   -2.734527002612450E-028
  1.240000000000000E-002   -7.694919708570008E-027
  1.250000000000000E-002   -1.573839726266600E-026
  1.260000000000000E-002   -2.359850023634439E-026
  1.270000000000000E-002   -3.032751573618774E-026
  1.280000000000000E-002   -3.491760656550753E-026
  1.290000000000000E-002   -3.640679862801860E-026
  1.300000000000000E-002   -3.400101925356597E-026
  1.310000000000000E-002   -2.720097131645312E-026
  1.320000000000000E-002   -1.591980478707872E-026
  1.330000000000000E-002   -5.757874578887963E-028
  1.340000000000000E-002    1.785599504325911E-026
  1.350000000000000E-002    3.784721309173374E-026
  1.360000000000000E-002    5.738574902305147E-026
  1.370000000000000E-002    7.411589620182650E-026
  1.380000000000000E-002    8.554672768272378E-026
  1.390000000000000E-002    8.931747964343685E-026
  1.400000000000000E-002    8.349979987367710E-026
  1.410000000000000E-002    6.690836447557462E-026
  1.420000000000000E-002    3.938476570933338E-026
  1.430000000000000E-002    2.015909246963128E-027
  1.440000000000000E-002   -4.275167320522167E-026
  1.450000000000000E-002   -9.113536265587872E-026
  1.460000000000000E-002   -1.382018345800985E-025
  1.470000000000000E-002   -1.782237016027375E-025
  1.480000000000000E-002   -2.051983901214112E-025
  1.490000000000000E-002   -2.134992273888591E-025
  1.500000000000000E-002   -1.986072622677882E-025
  1.510000000000000E-002   -1.578529234490284E-025
  1.520000000000000E-002   -9.108179893606193E-026
  1.530000000000000E-002   -1.151412757724038E-027
  1.540000000000000E-002    1.058317468997818E-025
  1.550000000000000E-002    2.206125075081884E-025
  1.560000000000000E-002    3.312766544548188E-025
  1.570000000000000E-002    4.241461007747161E-025
  1.580000000000000E-002    4.850504777162121E-025
  1.590000000000000E-002    5.008964882870599E-025
  1.600000000000000E-002    4.614057400222418E-025
  1.610000000000000E-002    3.608481315559542E-025
  1.620000000000000E-002    1.995655353275227E-025
  1.630000000000000E-002   -1.493319338279649E-026
  1.640000000000000E-002   -2.675147479795949E-025
  1.650000000000000E-002   -5.357746194082679E-025
  1.660000000000000E-002   -7.913101930537807E-025
  1.670000000000000E-002   -1.001935309857406E-024
  1.680000000000000E-002   -1.134749811724495E-024
  1.690000000000000E-002   -1.159861803604630E-024
  1.700000000000000E-002   -1.054445668204720E-024
  1.710000000000000E-002   -8.067200193923185E-025
  1.720000000000000E-002   -4.193640880050339E-025
  1.730000000000000E-002    8.813292982370695E-026
  1.740000000000000E-002    6.786612133578246E-025
  1.750000000000000E-002    1.298596059112902E-024
  1.760000000000000E-002    1.881040636221500E-024
  1.770000000000000E-002    2.351216851733892E-024
  1.780000000000000E-002    2.633763467436886E-024
  1.790000000000000E-002    2.661434202945664E-024
  1.800000000000000E-002    2.384430353694810E-024
  1.810000000000000E-002    1.779391929605755E-024
  1.820000000000000E-002    8.569313082932378E-025
  1.830000000000000E-002   -3.334350431433292E-025
  1.840000000000000E-002   -1.702003257818498E-024
  1.850000000000000E-002   -3.122056586284106E-024
  1.860000000000000E-002   -4.437928211956178E-024
  1.870000000000000E-002   -5.477892708097618E-024