 -4.000000000000000E-002    0.000000000000000E+000
 -3.990000000000000E-002    0.000000000000000E+000
 -3.980000000000000E-002    0.000000000000000E+000
 -3.970000000000000E-002    0.000000000000000E+000
 -3.960000000000000E-002    0.000000000000000E+000
 -3.950000000000000E-002    0.000000000000000E+000
 -3.940000000000000E-002    0.000000000000000E+000
 -3.930000000000000E-002    0.000000000000000E+000
 -3.920000000000000E-002    0.000000000000000E+000
 -3.910000000000000E-002    0.000000000000000E+000
 -3.900000000000000E-002    0.000000000000000E+000
 -3.890000000000000E-002    0.000000000000000E+000
 -3.880000000000000E-002    0.000000000000000E+000
 -3.870000000000000E-002    0.000000000000000E+000
 -3.860000000000000E-002    0.000000000000000E+000
 -3.850000000000000E-002    0.000000000000000E+000
 -3.840000000000000E-002    0.000000000000000E+000
 -3.830000000000000E-002    0.000000000000000E+000
 -3.820000000000000E-002    0.000000000000000E+000
 -3.810000000000000E-002    0.000000000000000E+000
 -3.800000000000000E-002    0.000000000000000E+000
 -3.790000000000000E-002    0.000000000000000E+000
 -3.780000000000000E-002    0.000000000000000E+000
 -3.770000000000000E-002    0.000000000000000E+000
 -3.760000000000000E-002    0.000000000000000E+000
 -3.750000000000000E-002    0.000000000000000E+000
 -3.740000000000000E-002    0.000000000000000E+000
 -3.730000000000000E-002    0.000000000000000E+000
 -3.720000000000000E-002    0.000000000000000E+000
 -3.710000000000000E-002    0.000000000000000E+000
 -3.700000000000000E-002    0.000000000000000E+000
 -3.690000000000000E-002    0.000000000000000E+000
 -3.680000000000000E-002    0.000000000000000E+000
 -3.670000000000000E-002    0.000000000000000E+000
 -3.660000000000000E-002    0.000000000000000E+000
 -3.650000000000000E-002    0.000000000000000E+000
 -3.640000000000000E-002    0.000000000000000E+000
 -3.630000000000000E-002    0.000000000000000E+000
 -3.620000000000000E-002    0.000000000000000E+000
 -3.610000000000000E-002    0.000000000000000E+000
 -3.600000000000000E-002    0.000000000000000E+000
 -3.590000000000000E-002    0.000000000000000E+000
 -3.580000000000000E-002    0.000000000000000E+000
 -3.570000000000000E-002    0.000000000000000E+000
 -3.560000000000000E-002    0.000000000000000E+000
 -3.550000000000000E-002    0.000000000000000E+000
 -3.540000000000000E-002    0.000000000000000E+000
 -3.530000000000000E-002    0.000000000000000E+000
 -3.520000000000000E-002    0.000000000000000E+000
 -3.510000000000000E-002    0.000000000000000E+000
 -3.500000000000000E-002    0.000000000000000E+000
 -3.490000000000000E-002    0.000000000000000E+000
 -3.480000000000000E-002    0.000000000000000E+000
 -3.470000000000000E-002    0.000000000000000E+000
 -3.460000000000000E-002    0.000000000000000E+000
 -3.450000000000000E-002    0.000000000000000E+000
 -3.440000000000000E-002    0.000000000000000E+000
 -3.430000000000000E-002    0.000000000000000E+000
 -3.420000000000000E-002    0.000000000000000E+000
 -3.410000000000000E-002    0.000000000000000E+000
 -3.400000000000000E-002    0.000000000000000E+000
 -3.390000000000000E-002    0.000000000000000E+000
 -3.380000000000000E-002    0.000000000000000E+000
 -3.370000000000000E-002    0.000000000000000E+000
 -3.360000000000000E-002    0.000000000000000E+000
 -3.350000000000000E-002    0.000000000000000E+000
 -3.340000000000000E-002    0.000000000000000E+000
 -3.330000000000000E-002    0.000000000000000E+000
 -3.320000000000000E-002    0.000000000000000E+000
 -3.310000000000000E-002    0.000000000000000E+000
 -3.300000000000000E-002    0.000000000000000E+000
 -3.290000000000000E-002    0.000000000000000E+000
 -3.280000000000000E-002    0.000000000000000E+000
 -3.270000000000000E-002    0.000000000000000E+000
 -3.260000000000000E-002    0.000000000000000E+000
 -3.250000000000000E-002    0.000000000000000E+000
 -3.240000000000000E-002    0.000000000000000E+000
 -3.230000000000000E-002    0.000000000000000E+000
 -3.220000000000000E-002    0.000000000000000E+000
 -3.210000000000000E-002    0.000000000000000E+000
 -3.200000000000000E-002    0.000000000000000E+000
 -3.190000000000000E-002    0.000000000000000E+000
 -3.180000000000000E-002    0.000000000000000E+000
 -3.170000000000000E-002    0.000000000000000E+000
 -3.160000000000000E-002    0.000000000000000E+000
 -3.150000000000000E-002    0.000000000000000E+000
 -3.140000000000000E-002    0.000000000000000E+000
 -3.130000000000000E-002    0.000000000000000E+000
 -3.120000000000000E-002    0.000000000000000E+000
 -3.110000000000000E-002    0.000000000000000E+000
 -3.100000000000000E-002    0.000000000000000E+000
 -3.090000000000000E-002    0.000000000000000E+000
 -3.080000000000000E-002    0.000000000000000E+000
 -3.070000000000000E-002    0.000000000000000E+000
 -3.060000000000000E-002    0.000000000000000E+000
 -3.050000000000000E-002    0.000000000000000E+000
 -3.040000000000000E-002    0.000000000000000E+000
 -3.030000000000000E-002    0.000000000000000E+000
 -3.020000000000000E-002    0.000000000000000E+000
 -3.010000000000000E-002    0.000000000000000E+000
 -3.000000000000000E-002    0.000000000000000E+000
 -2.990000000000000E-002    0.000000000000000E+000
 -2.980000000000000E-002    0.000000000000000E+000
 -2.970000000000000E-002    0.000000000000000E+000
 -2.960000000000000E-002    0.000000000000000E+000
 -2.950000000000000E-002    6.414635304221270E-048
 -2.940000000000000E-002    6.335780588642965E-047
 -2.930000000000000E-002    1.267156117728593E-046
 -2.920000000000000E-002    1.964880529635102E-046
 -2.910000000000000E-002    2.996833352875582E-046
 -2.900000000000000E-002    4.028786176116062E-046
 -2.890000000000000E-002    4.911064175591378E-046
 -2.880000000000000E-002    5.223910469244611E-046
 -2.870000000000000E-002    3.527109871357873E-046
 -2.860000000000000E-002   -2.235629912493498E-046
 -2.850000000000000E-002   -1.351868814061259E-045
 -2.840000000000000E-002   -2.997794880356420E-045
 -2.830000000000000E-002   -5.506554827559896E-045
 -2.820000000000000E-002   -9.020914464227565E-045
 -2.810000000000000E-002   -1.373700093852077E-044
 -2.800000000000000E-002   -1.904261831944552E-044
 -2.790000000000000E-002   -2.386815403959829E-044
 -2.780000000000000E-002   -2.767093890548678E-044
 -2.770000000000000E-002   -2.683695822558684E-044
 -2.760000000000000E-002   -1.885728540020862E-044
 -2.750000000000000E-002    2.949152832634146E-045
 -2.740000000000000E-002    4.538103346007965E-044
 -2.730000000000000E-002    1.165333985914224E-043
 -2.720000000000000E-002    2.239644639280186E-043
 -2.710000000000000E-002    3.724553308258448E-043
 -2.700000000000000E-002    5.593160959291319E-043
 -2.690000000000000E-002    7.716540792026459E-043
 -2.680000000000000E-002    9.753496805614415E-043
 -2.670000000000000E-002    1.108888623211778E-042
 -2.660000000000000E-002    1.077664162411148E-042
 -2.650000000000000E-002    7.450620024761791E-043
 -2.640000000000000E-002   -6.570476121530074E-044
 -2.630000000000000E-002   -1.561919531158102E-042
 -2.620000000000000E-002   -3.955326367471542E-042
 -2.610000000000000E-002   -7.411566555159898E-042
 -2.600000000000000E-002   -1.197585084420870E-041
 -2.590000000000000E-002   -1.746392094207626E-041
 -2.580000000000000E-002   -2.332087222574239E-041
 -2.570000000000000E-002   -2.846445108811000E-041
 -2.560000000000000E-002   -3.112558599882063E-041
 -2.550000000000000E-002   -2.872760355416732E-041
 -2.540000000000000E-002   -1.786403081532422E-041
 -2.530000000000000E-002    5.553735306131215E-042
 -2.520000000000000E-002    4.588396190046166E-041
 -2.510000000000000E-002    1.069747472706019E-040
 -2.500000000000000E-002    1.909320934300507E-040
 -2.490000000000000E-002    2.963804683510730E-040
 -2.480000000000000E-002    4.162515113562591E-040
 -2.470000000000000E-002    5.352339328530121E-040
 -2.460000000000000E-002    6.272303732522147E-040
 -2.450000000000000E-002    6.533469364890043E-040
 -2.440000000000000E-002    5.612346263827548E-040
 -2.430000000000000E-002    2.868262518877541E-040
 -2.420000000000000E-002   -2.402859442543546E-040
 -2.410000000000000E-002   -1.086527949675658E-039
 -2.400000000000000E-002   -2.297966693311029E-039
 -2.390000000000000E-002   -3.877300414800462E-039
 -2.380000000000000E-002   -5.754633759458239E-039
 -2.370000000000000E-002   -7.754023567423713E-039
 -2.360000000000000E-002   -9.559853192676987E-039
 -2.350000000000000E-002   -1.068974171329513E-038
 -2.340000000000000E-002   -1.048349641718746E-038
 -2.330000000000000E-002   -8.120312081916062E-039
 -2.320000000000000E-002   -2.678270425728026E-039
 -2.310000000000000E-002    6.749655905456169E-039
 -2.300000000000000E-002    2.087142286207614E-038
 -2.290000000000000E-002    3.993827534806721E-038
 -2.280000000000000E-002    6.341951668276543E-038
 -2.270000000000000E-002    8.963205869770726E-038
 -2.260000000000000E-002    1.153690202506615E-037
 -2.250000000000000E-002    1.355973382537800E-037
 -2.240000000000000E-002    1.433216293894436E-037
 -2.230000000000000E-002    1.297354714367067E-037
 -2.220000000000000E-002    8.479574797722232E-038
 -2.210000000000000E-002   -1.647189753362198E-039
 -2.200000000000000E-002   -1.380606064615695E-037
 -2.190000000000000E-002   -3.287441367158400E-037
 -2.180000000000000E-002   -5.707183374698097E-037
 -2.170000000000000E-002   -8.502113041262334E-037
 -2.160000000000000E-002   -1.139161843626592E-036
 -2.150000000000000E-002   -1.392381397259048E-036
 -2.140000000000000E-002   -1.546238566789239E-036
 -2.130000000000000E-002   -1.519915146019792E-036
 -2.120000000000000E-002   -1.220370454466704E-036
 -2.110000000000000E-002   -5.520829544989072E-037
 -2.100000000000000E-002    5.676610864999183E-037
 -2.090000000000000E-002    2.187749361793577E-036
 -2.080000000000000E-002    4.297236521855375E-036
 -2.070000000000000E-002    6.796339251074802E-036
 -2.060000000000000E-002    9.467971378332600E-036
 -2.050000000000000E-002    1.195501529053547E-035
 -2.040000000000000E-002    1.375015034487150E-035
 -2.030000000000000E-002    1.420621785938397E-035
 -2.020000000000000E-002    1.257551206862991E-035
 -2.010000000000000E-002    8.085474433641775E-036
 -2.000000000000000E-002    5.565211103586365E-038
 -1.990000000000000E-002   -1.194393819373770E-035
 -1.980000000000000E-002   -2.789991230127334E-035
 -1.970000000000000E-002   -4.714411542604999E-035
 -1.960000000000000E-002   -6.815047288390914E-035
 -1.950000000000000E-002   -8.837805628831629E-035
 -1.940000000000000E-002   -1.042083559351080E-034
 -1.930000000000000E-002   -1.110312290489175E-034
 -1.920000000000000E-002   -1.035341389704023E-034
 -1.910000000000000E-002   -7.624074970424541E-035
 -1.900000000000000E-002   -2.432403677009904E-035
 -1.890000000000000E-002    5.531476844311327E-035
 -1.880000000000000E-002    1.627583842819283E-034
 -1.870000000000000E-002    2.936937982595345E-034
 -1.860000000000000E-002    4.381251956001417E-034
 -1.850000000000000E-002    5.794310402678934E-034
 -1.840000000000000E-002    6.940712154596706E-034
 -1.830000000000000E-002    7.522788132502200E-034
 -1.820000000000000E-002    7.200568333731795E-034
 -1.810000000000000E-002    5.627263288306419E-034
 -1.800000000000000E-002    2.501283464444717E-034
 -1.790000000000000E-002   -2.366431211159809E-034
 -1.780000000000000E-002   -8.973996319252274E-034
 -1.770000000000000E-002   -1.704689634611911E-033
 -1.760000000000000E-002   -2.596469283142823E-033
 -1.750000000000000E-002   -3.471137299759775E-033
 -1.740000000000000E-002   -4.186718876161427E-033
 -1.730000000000000E-002   -4.566071496331869E-033
 -1.720000000000000E-002   -4.409801162160234E-033
 -1.710000000000000E-002   -3.518049872506997E-033
 -1.700000000000000E-002   -1.721389355497688E-033
 -1.690000000000000E-002    1.080291997894338E-033
 -1.680000000000000E-002    4.873745078649328E-033
 -1.670000000000000E-002    9.487950964673306E-033
 -1.660000000000000E-002    1.455615236181130E-032
 -1.650000000000000E-002    1.949285025542548E-032
 -1.640000000000000E-002    2.349536271093239E-032
 -1.630000000000000E-002    2.557956706377855E-032
 -1.620000000000000E-002    2.465789700124163E-032
 -1.610000000000000E-002    1.966432986436958E-032
 -1.600000000000000E-002    9.725634394189797E-033
 -1.590000000000000E-002   -5.629271394917671E-033
 -1.580000000000000E-002   -2.623910172933061E-032
 -1.570000000000000E-002   -5.108628012924679E-032
 -1.560000000000000E-002   -7.811599771925292E-032
 -1.550000000000000E-002   -1.041425548303528E-031
 -1.540000000000000E-002   -1.248908091995673E-031
 -1.530000000000000E-002   -1.352182767182356E-031
 -1.520000000000000E-002   -1.295531875199517E-031
 -1.510000000000000E-002   -1.025643462954348E-031
 -1.500000000000000E-002   -5.004934628255871E-032
 -1.490000000000000E-002    3.001013084517000E-032
 -1.480000000000000E-002    1.363219637797099E-031
 -1.470000000000000E-002    2.632283221543392E-031
 -1.460000000000000E-002    3.999057527810448E-031
 -1.450000000000000E-002    5.300343912140083E-031
 -1.440000000000000E-002    6.321584777535619E-031
 -1.430000000000000E-002    6.809387640719193E-031
 -1.420000000000000E-002    6.494362813723561E-031
 -1.410000000000000E-002    5.124661820757326E-031
 -1.400000000000000E-002    2.509138046984544E-031
 -1.390000000000000E-002   -1.432738124975038E-031
 -1.380000000000000E-002   -6.619121997555567E-031
 -1.370000000000000E-002   -1.275910011926111E-030
 -1.360000000000000E-002   -1.931969167709329E-030
 -1.350000000000000E-002   -2.551618304892173E-030
 -1.340000000000000E-002   -3.033545022792038E-030
 -1.330000000000000E-002   -3.260043354498160E-030
 -1.320000000000000E-002   -3.108084077162802E-030
 -1.310000000000000E-002   -2.465013871889113E-030
 -1.300000000000000E-002   -1.248228361542987E-030
 -1.290000000000000E-002    5.726417394838424E-031
 -1.280000000000000E-002    2.953346875927673E-030
 -1.270000000000000E-002    5.755574834715193E-030
 -1.260000000000000E-002    8.734215796426546E-030
 -1.250000000000000E-002    1.153542448909736E-029
 -1.240000000000000E-002    1.370938521188208E-029
 -1.230000000000000E-002    1.474090900985918E-029
 -1.220000000000000E-002    1.409946690614633E-029
 -1.210000000000000E-002    1.130807859047534E-029
 -1.200000000000000E-002    6.027564360894948E-030
 -1.190000000000000E-002   -1.850607840277006E-030
 -1.180000000000000E-002   -1.211308247736767E-029
 -1.170000000000000E-002   -2.414829263962150E-029
 -1.160000000000000E-002   -3.690053858315944E-029
 -1.150000000000000E-002   -4.887070436848062E-029
 -1.140000000000000E-002   -5.817850214589635E-029
 -1.130000000000000E-002   -6.269732919841423E-029
 -1.120000000000000E-002   -6.026619833056427E-029
 -1.110000000000000E-002   -4.897392066410942E-029
 -1.100000000000000E-002   -2.749911978986254E-029
 -1.090000000000000E-002    4.523105841608710E-030
 -1.080000000000000E-002    4.614998296015726E-029
 -1.070000000000000E-002    9.484831622988483E-029
 -1.060000000000000E-002    1.463400060615338E-028
 -1.050000000000000E-002    1.946368181241063E-028
 -1.040000000000000E-002    2.323175620508403E-028
 -1.030000000000000E-002    2.510843951451236E-028
 -1.020000000000000E-002    2.426075858525741E-028
 -1.010000000000000E-002    1.996318012228001E-028
 -1.000000000000000E-002    1.172731121851539E-028
 -9.899999999999999E-003   -5.611174880921218E-030
 -9.800000000000000E-003   -1.651428358480673E-028
 -9.699999999999999E-003   -3.514323215990295E-028
 -9.599999999999999E-003   -5.480965100908616E-028
 -9.500000000000000E-003   -7.324998264957432E-028
 -9.399999999999999E-003   -8.768981255603075E-028
 -9.299999999999999E-003   -9.505982586264755E-028
 -9.200000000000000E-003   -9.231400028610897E-028
 -9.099999999999999E-003   -7.683733395269988E-028
 -8.999999999999999E-003   -4.691478682197031E-028
 -8.900000000000000E-003   -2.216709769849197E-029
 -8.799999999999999E-003    5.575882542053780E-028
 -8.699999999999999E-003    1.233576611500630E-027
 -8.600000000000000E-003    1.946309078876288E-027
 -8.499999999999999E-003    2.614578676588435E-027
 -8.399999999999999E-003    3.139880867052692E-027
 -8.300000000000000E-003    3.414336674059257E-027
 -8.199999999999999E-003    3.332056975020288E-027
 -8.100000000000000E-003    2.803410644390901E-027
 -8.000000000000000E-003    1.771136371276094E-027
 -7.899999999999999E-003    2.266941329516825E-028
 -7.800000000000000E-003   -1.775207680215923E-027
 -7.699999999999999E-003   -4.106304439270114E-027
 -7.599999999999999E-003   -6.561174055123845E-027
 -7.499999999999999E-003   -8.862625082888077E-027
 -7.399999999999999E-003   -1.067780032725493E-026
 -7.299999999999999E-003   -1.164578647594963E-026
 -7.199999999999999E-003   -1.141622153966849E-026
 -7.100000000000000E-003   -9.696854074755351E-027
 -6.999999999999999E-003   -6.306265835498326E-027
 -6.899999999999999E-003   -1.226343613690050E-027
 -6.800000000000000E-003    5.352342689939480E-027
 -6.699999999999999E-003    1.299992935420861E-026
 -6.599999999999999E-003    2.103921953797964E-026
 -6.499999999999999E-003    2.856707808671393E-026
 -6.399999999999999E-003    3.451018523396299E-026
 -6.299999999999999E-003    3.771680180748382E-026
 -6.199999999999999E-003    3.708210214638237E-026
 -6.100000000000000E-003    3.169962729804740E-026
 -5.999999999999999E-003    2.102620157640582E-026
 -5.899999999999999E-003    5.042709132407761E-027
 -5.800000000000000E-003   -1.561078200965274E-026
 -5.699999999999999E-003   -3.954917655538916E-026
 -5.599999999999999E-003   -6.462907521593215E-026
 -5.499999999999999E-003   -8.802787121542720E-026
 -5.399999999999999E-003   -1.064281560102820E-025
 -5.299999999999999E-003   -1.163103099864919E-025
 -5.199999999999999E-003   -1.143429209646774E-025
 -5.099999999999999E-003   -9.784584126384601E-026
 -4.999999999999999E-003   -6.528531351291613E-026
 -4.899999999999999E-003   -1.674647340485650E-026
 -4.799999999999999E-003    4.568161285598201E-026
 -4.699999999999999E-003    1.176783060238027E-025
 -4.599999999999999E-003    1.926876521292399E-025
 -4.499999999999999E-003    2.621932229147998E-025
 -4.399999999999999E-003    3.163039575030061E-025
 -4.299999999999999E-003    3.446522107286501E-025
 -4.199999999999999E-003    3.375663103500536E-025
 -4.099999999999999E-003    2.874364038623715E-025
 -3.999999999999999E-003    1.901488804220133E-025
 -3.899999999999999E-003    4.642675586767261E-026
 -3.799999999999999E-003   -1.371128107095479E-025
 -3.699999999999999E-003   -3.473827113586121E-025
 -3.599999999999999E-003   -5.649155646092610E-025
 -3.499999999999999E-003   -7.647633588690251E-025
 -3.399999999999999E-003   -9.182847667349674E-025
 -3.299999999999999E-003   -9.958044552466897E-025
 -3.199999999999999E-003   -9.700175668151476E-025
 -3.099999999999999E-003   -8.198912568001744E-025
 -2.999999999999999E-003   -5.346965829294062E-025
 -2.899999999999999E-003   -1.177040532665269E-025
 -2.799999999999999E-003    4.109878025510850E-025
 -2.699999999999999E-003    1.013035739550155E-024
 -2.599999999999999E-003    1.632341294174295E-024
 -2.499999999999999E-003    2.197815952693370E-024
 -2.399999999999999E-003    2.628600374601317E-024
 -2.299999999999999E-003    2.841648871917059E-024
 -2.199999999999999E-003    2.761286627007278E-024
 -2.099999999999999E-003    2.330018059561793E-024
 -1.999999999999999E-003    1.519552376259450E-024
 -1.899999999999999E-003    3.407589661805586E-025
 -1.799999999999999E-003   -1.148888049916884E-024
 -1.699999999999999E-003   -2.841823190638072E-024
 -1.599999999999999E-003   -4.582153842664991E-024
 -1.499999999999999E-003   -6.173593992179850E-024
 -1.399999999999999E-003   -7.393972694886104E-024
 -1.299999999999999E-003   -8.015984271823203E-024
 -1.199999999999999E-003   -7.833045095558679E-024
 -1.099999999999999E-003   -6.688272301178458E-024
 -9.999999999999989E-004   -4.503789925966351E-024
 -8.999999999999990E-004   -1.306949130376388E-024
 -7.999999999999990E-004    2.750303780352613E-024
 -6.999999999999989E-004    7.382643451129098E-024
 -5.999999999999990E-004    1.217642975484948E-023
 -4.999999999999989E-004    1.661090195768125E-023
 -3.999999999999989E-004    2.009636254807512E-023
 -2.999999999999989E-004    2.202835065840604E-023
 -1.999999999999989E-004    2.185476626182984E-023
 -9.999999999999892E-005    1.915068672786629E-023
  1.084202172485504E-018    1.369372495698775E-023
  1.000000000000011E-004    5.531221753796796E-024
  2.000000000000011E-004   -4.970188350749431E-024
  3.000000000000011E-004   -1.710195187352637E-023
  4.000000000000011E-004   -2.982588187835647E-023
  5.000000000000011E-004   -4.182687997389660E-023
  6.000000000000011E-004   -5.160791973028743E-023
  7.000000000000011E-004   -5.762462396392254E-023
  8.000000000000011E-004   -5.845165229409928E-023
  9.000000000000012E-004   -5.296782707755731E-023
  1.000000000000001E-003   -4.054233487707211E-023
  1.100000000000001E-003   -2.120090676808328E-023
  1.200000000000001E-003    4.251067636210418E-024
  1.300000000000001E-003    3.417063136173802E-023
  1.400000000000001E-003    6.610350593496507E-023
  1.500000000000001E-003    9.690731945642057E-023
  1.600000000000001E-003    1.229758009453248E-022
  1.700000000000001E-003    1.405570276128698E-022
  1.800000000000001E-003    1.461469049610708E-022
  1.900000000000001E-003    1.369268723730221E-022
  2.000000000000001E-003    1.112040523766873E-022
  2.100000000000001E-003    6.880436808259208E-023
  2.200000000000001E-003    1.136540564029404E-023
  2.300000000000001E-003   -5.752201512921848E-023
  2.400000000000001E-003   -1.323668620587190E-022
  2.500000000000001E-003   -2.060537569469947E-022
  2.600000000000001E-003   -2.703501605694423E-022
  2.700000000000001E-003   -3.166278167900548E-022
  2.800000000000001E-003   -3.367543922757503E-022
  2.900000000000001E-003   -3.240842173183512E-022
  3.000000000000001E-003   -2.744532518208381E-022
  3.100000000000001E-003   -1.870661636943518E-022
  3.200000000000001E-003   -6.515724061269493E-023
  3.300000000000001E-003    8.368864626921298E-023
  3.400000000000001E-003    2.476491523142134E-022
  3.500000000000001E-003    4.112720649086091E-022
  3.600000000000001E-003    5.565932996377694E-022
  3.700000000000001E-003    6.647242799552429E-022
  3.800000000000001E-003    7.178074345200929E-022
  3.900000000000001E-003    7.011822803007690E-022
  4.000000000000001E-003    6.055506250586385E-022
  4.100000000000001E-003    4.288964605115579E-022
  4.200000000000001E-003    1.779032267154522E-022
  4.300000000000001E-003   -1.313759281373523E-022
  4.400000000000001E-003   -4.737932941773120E-022
  4.500000000000001E-003   -8.164524279388342E-022
  4.600000000000002E-003   -1.121148382601419E-021
  4.700000000000001E-003   -1.347807119763056E-021
  4.800000000000001E-003   -1.458696205055854E-021
  4.900000000000002E-003   -1.423061209238464E-021
  5.000000000000001E-003   -1.221728072194470E-021
  5.100000000000001E-003   -8.511499265268002E-022
  5.200000000000001E-003   -3.263462094837509E-022
  5.300000000000002E-003    3.177753785982262E-022
  5.400000000000001E-003    1.027131253455384E-021
  5.500000000000001E-003    1.731455278223438E-021
  5.600000000000002E-003    2.349608645167144E-021
  5.700000000000001E-003    2.796986812375592E-021
  5.800000000000001E-003    2.994523059628780E-021
  5.900000000000002E-003    2.878541378226667E-021
  6.000000000000001E-003    2.410483455369940E-021
  6.100000000000001E-003    1.585395805215098E-021
  6.200000000000002E-003    4.380258582576186E-022
  6.300000000000002E-003   -9.545446093667067E-022
  6.400000000000001E-003   -2.474591157620757E-021
  6.500000000000001E-003   -3.970259733143798E-021
  6.600000000000002E-003   -5.266972329292979E-021
  6.700000000000001E-003   -6.183226740192587E-021
  6.800000000000001E-003   -6.549748414591612E-021
  6.900000000000002E-003   -6.230413519471760E-021
  7.000000000000001E-003   -5.142897765324123E-021
  7.100000000000001E-003   -3.276731619055117E-021
  7.200000000000002E-003   -7.063540447663378E-022
  7.300000000000002E-003    2.403075456463401E-021
  7.400000000000001E-003    5.798897702982833E-021
  7.500000000000001E-003    9.154282333731383E-021
  7.600000000000002E-003    1.209181664700363E-020
  7.700000000000001E-003    1.421641516745247E-020
  7.800000000000001E-003    1.515540546062662E-020
  7.900000000000001E-003    1.460260814246501E-020
  8.000000000000002E-003    1.236223326623148E-020
  8.100000000000001E-003    8.387861796131491E-021
  8.200000000000001E-003    2.811521655096546E-021
  8.300000000000002E-003   -4.041771234738069E-021
  8.400000000000001E-003   -1.165778611725793E-020
  8.500000000000002E-003   -1.935761486841202E-020
  8.600000000000002E-003   -2.634345813599169E-020
  8.700000000000001E-003   -3.176407612384358E-020
  8.800000000000002E-003   -3.479592164030588E-020
  8.900000000000002E-003   -3.473372254911622E-020
  9.000000000000001E-003   -3.108243450667534E-020
  9.100000000000002E-003   -2.364105104374796E-020
  9.200000000000002E-003   -1.256836261513244E-020
  9.300000000000001E-003    1.578911124868783E-021
  9.400000000000002E-003    1.784358886965148E-020
  9.500000000000001E-003    3.490652138215458E-020
  9.600000000000001E-003    5.116795896060946E-020
  9.700000000000002E-003    6.486966511220334E-020
  9.800000000000001E-003    7.425075452245711E-020
  9.900000000000001E-003    7.772615577497242E-020
  1.000000000000000E-002    7.407242693999682E-020
  1.010000000000000E-002    6.260296895585957E-020
  1.020000000000000E-002    4.331318215534261E-020
  1.030000000000000E-002    1.697670499261269E-020
  1.040000000000000E-002   -1.482375133031034E-020
  1.050000000000000E-002   -4.974308912235961E-020
  1.060000000000000E-002   -8.480351301617879E-020
  1.070000000000000E-002   -1.166053055937767E-019
  1.080000000000000E-002   -1.416081280050973E-019
  1.090000000000000E-002   -1.564636391076534E-019
  1.100000000000000E-002   -1.583726870209517E-019
  1.110000000000000E-002   -1.454342619380431E-019
  1.120000000000000E-002   -1.169501455549385E-019
  1.130000000000000E-002   -7.364878654988376E-020
  1.140000000000000E-002   -1.779597961817411E-020
  1.150000000000000E-002    4.683321786521095E-020
  1.160000000000000E-002    1.151359871052905E-019
  1.170000000000000E-002    1.810175357887478E-019
  1.180000000000000E-002    2.378666535021264E-019
  1.190000000000000E-002    2.791408549584168E-019
  1.200000000000000E-002    2.990162354769872E-019
  1.210000000000000E-002    2.930448051529382E-019
  1.220000000000000E-002    2.587550221693299E-019
  1.230000000000000E-002    1.961287230181461E-019
  1.240000000000000E-002    1.078921286030070E-019
  1.250000000000000E-002   -4.298944617674209E-022
  1.260000000000000E-002   -1.207298772994475E-019
  1.270000000000000E-002   -2.428142398905131E-019
  1.280000000000000E-002   -3.551634045630966E-019
  1.290000000000000E-002   -4.459108177028634E-019
  1.300000000000000E-002   -5.039688678624872E-019
  1.310000000000000E-002   -5.202057115028325E-019
  1.320000000000000E-002   -4.885628131211089E-019
  1.330000000000000E-002   -4.069942966502847E-019
  1.340000000000000E-002   -2.781138799665429E-019
  1.350000000000000E-002   -1.094525709690557E-019
  1.360000000000000E-002    8.674308625472978E-020
  1.370000000000000E-002    2.942045171385047E-019
  1.380000000000000E-002    4.938110499627778E-019
  1.390000000000000E-002    6.651754572970160E-019
  1.400000000000000E-002    7.885303317628541E-019
  1.410000000000000E-002    8.467624877690384E-019
  1.420000000000000E-002    8.274064406162454E-019
  1.430000000000000E-002    7.243942638016127E-019
  1.440000000000000E-002    5.393577556038944E-019
  1.450000000000000E-002    2.823032918253247E-019
  1.460000000000000E-002   -2.847938132388509E-020
  1.470000000000000E-002   -3.673508566040564E-019
  1.480000000000000E-002   -7.030969996445832E-019
  1.490000000000000E-002   -1.001463424636985E-018
  1.500000000000000E-002   -1.228275409123763E-018
  1.510000000000000E-002   -1.352898250150201E-018
  1.520000000000000E-002   -1.351725793893485E-018
  1.530000000000000E-002   -1.211347409798562E-018
  1.540000000000000E-002   -9.310404971699455E-019
  1.550000000000000E-002   -5.242582578297915E-019
  1.560000000000000E-002   -1.885069106358135E-020
  1.570000000000000E-002    5.441461756664807E-019
  1.580000000000000E-002    1.113192315507660E-018
  1.590000000000000E-002    1.630294570821479E-018
  1.600000000000000E-002    2.036169595253625E-018
  1.610000000000000E-002    2.276125640022431E-018
  1.620000000000000E-002    2.306150559341386E-018
  1.630000000000000E-002    2.098615121991339E-018
  1.640000000000000E-002    1.646969851269719E-018
  1.650000000000000E-002    9.688510496694501E-019
  1.660000000000000E-002    1.070977055686120E-019
  1.670000000000000E-002   -8.716628835700323E-019
  1.680000000000000E-002   -1.880995638349676E-018
  1.690000000000000E-002   -2.821090021288613E-018
  1.700000000000000E-002   -3.587297238254916E-018
  1.710000000000000E-002   -4.080130820663278E-018
  1.720000000000000E-002   -4.215914478615900E-018
  1.730000000000000E-002   -3.937070873104789E-018
  1.740000000000000E-002   -3.220980986992527E-018
  1.750000000000000E-002   -2.086373339141276E-018
  1.760000000000000E-002   -5.963018892388408E-019
  1.770000000000000E-002    1.142961640377503E-018
  1.780000000000000E-002    2.987469379738903E-018
  1.790000000000000E-002    4.765546519181068E-018
  1.800000000000000E-002    6.291641454176087E-018
  1.810000000000000E-002    7.383150303137095E-018
  1.820000000000000E-002    7.878882983363801E-018
  1.830000000000000E-002    7.657510003554770E-018
  1.840000000000000E-002    6.654187400480373E-018
  1.850000000000000E-002    4.873482977816272E-018
  1.860000000000000E-002    2.396933109142660E-018
  1.870000000000000E-002   -6.161308577740669E-019