 -4.000000000000000E-002    0.000000000000000E+000
 -3.990000000000000E-002    0.000000000000000E+000
 -3.980000000000000E-002    0.000000000000000E+000
 -3.970000000000000E-002    0.000000000000000E+000
 -3.960000000000000E-002    0.000000000000000E+000
 -3.950000000000000E-002    0.000000000000000E+000
 -3.940000000000000E-002    0.000000000000000E+000
 -3.930000000000000E-002    0.000000000000000E+000
 -3.920000000000000E-002    0.000000000000000E+000
 -3.910000000000000E-002    0.000000000000000E+000
 -3.900000000000000E-002    0.000000000000000E+000
 -3.890000000000000E-002    0.000000000000000E+000
 -3.880000000000000E-002    0.000000000000000E+000
 -3.870000000000000E-002    0.000000000000000E+000
 -3.860000000000000E-002    0.000000000000000E+000
 -3.850000000000000E-002    0.000000000000000E+000
 -3.840000000000000E-002    0.000000000000000E+000
 -3.830000000000000E-002    0.000000000000000E+000
 -3.820000000000000E-002    0.000000000000000E+000
 -3.810000000000000E-002    0.000000000000000E+000
 -3.800000000000000E-002    0.000000000000000E+000
 -3.790000000000000E-002    0.000000000000000E+000
 -3.780000000000000E-002    0.000000000000000E+000
 -3.770000000000000E-002    0.000000000000000E+000
 -3.760000000000000E-002    0.000000000000000E+000
 -3.750000000000000E-002    0.000000000000000E+000
 -3.740000000000000E-002    0.000000000000000E+000
 -3.730000000000000E-002    0.000000000000000E+000
 -3.720000000000000E-002    0.000000000000000E+000
 -3.710000000000000E-002    0.000000000000000E+000
 -3.700000000000000E-002    0.000000000000000E+000
 -3.690000000000000E-002    0.000000000000000E+000
 -3.680000000000000E-002    0.000000000000000E+000
 -3.670000000000000E-002    0.000000000000000E+000
 -3.660000000000000E-002    0.000000000000000E+000
 -3.650000000000000E-002    0.000000000000000E+000
 -3.640000000000000E-002    0.000000000000000E+000
 -3.630000000000000E-002    0.000000000000000E+000
 -3.620000000000000E-002    0.000000000000000E+000
 -3.610000000000000E-002    0.000000000000000E+000
 -3.600000000000000E-002    0.000000000000000E+000
 -3.590000000000000E-002    0.000000000000000E+000
 -3.580000000000000E-002    0.000000000000000E+000
 -3.570000000000000E-002    0.000000000000000E+000
 -3.560000000000000E-002    0.000000000000000E+000
 -3.550000000000000E-002    0.000000000000000E+000
 -3.540000000000000E-002    0.000000000000000E+000
 -3.530000000000000E-002    0.000000000000000E+000
 -3.520000000000000E-002    0.000000000000000E+000
 -3.510000000000000E-002    0.000000000000000E+000
 -3.500000000000000E-002    0.000000000000000E+000
 -3.490000000000000E-002    0.000000000000000E+000
 -3.480000000000000E-002    0.000000000000000E+000
 -3.470000000000000E-002    0.000000000000000E+000
 -3.460000000000000E-002    0.000000000000000E+000
 -3.450000000000000E-002    0.000000000000000E+000
 -3.440000000000000E-002    0.000000000000000E+000
 -3.430000000000000E-002    0.000000000000000E+000
 -3.420000000000000E-002    0.000000000000000E+000
 -3.410000000000000E-002    0.000000000000000E+000
 -3.400000000000000E-002    0.000000000000000E+000
 -3.390000000000000E-002    0.000000000000000E+000
 -3.380000000000000E-002    0.000000000000000E+000
 -3.370000000000000E-002    0.000000000000000E+000
 -3.360000000000000E-002    0.000000000000000E+000
 -3.350000000000000E-002    0.000000000000000E+000
 -3.340000000000000E-002    0.000000000000000E+000
 -3.330000000000000E-002    0.000000000000000E+000
 -3.320000000000000E-002    0.000000000000000E+000
 -3.310000000000000E-002    0.000000000000000E+000
 -3.300000000000000E-002    0.000000000000000E+000
 -3.290000000000000E-002    0.000000000000000E+000
 -3.280000000000000E-002    0.000000000000000E+000
 -3.270000000000000E-002    0.000000000000000E+000
 -3.260000000000000E-002    0.000000000000000E+000
 -3.250000000000000E-002    0.000000000000000E+000
 -3.240000000000000E-002    0.000000000000000E+000
 -3.230000000000000E-002    0.000000000000000E+000
 -3.220000000000000E-002    0.000000000000000E+000
 -3.210000000000000E-002    0.000000000000000E+000
 -3.200000000000000E-002    0.000000000000000E+000
 -3.190000000000000E-002    0.000000000000000E+000
 -3.180000000000000E-002    0.000000000000000E+000
 -3.170000000000000E-002    0.000000000000000E+000
 -3.160000000000000E-002    0.000000000000000E+000
 -3.150000000000000E-002    0.000000000000000E+000
 -3.140000000000000E-002    0.000000000000000E+000
 -3.130000000000000E-002    0.000000000000000E+000
 -3.120000000000000E-002    0.000000000000000E+000
 -3.110000000000000E-002    0.000000000000000E+000
 -3.100000000000000E-002    0.000000000000000E+000
 -3.090000000000000E-002    0.000000000000000E+000
 -3.080000000000000E-002    0.000000000000000E+000
 -3.070000000000000E-002    0.000000000000000E+000
 -3.060000000000000E-002    0.000000000000000E+000
 -3.050000000000000E-002    0.000000000000000E+000
 -3.040000000000000E-002    0.000000000000000E+000
 -3.030000000000000E-002    0.000000000000000E+000
 -3.020000000000000E-002    0.000000000000000E+000
 -3.010000000000000E-002    0.000000000000000E+000
 -3.000000000000000E-002    0.000000000000000E+000
 -2.990000000000000E-002    0.000000000000000E+000
 -2.980000000000000E-002    0.000000000000000E+000
 -2.970000000000000E-002    0.000000000000000E+000
 -2.960000000000000E-002    0.000000000000000E+000
 -2.950000000000000E-002    0.000000000000000E+000
 -2.940000000000000E-002    0.000000000000000E+000
 -2.930000000000000E-002    0.000000000000000E+000
 -2.920000000000000E-002    0.000000000000000E+000
 -2.910000000000000E-002    0.000000000000000E+000
 -2.900000000000000E-002    0.000000000000000E+000
 -2.890000000000000E-002    0.000000000000000E+000
 -2.880000000000000E-002    0.000000000000000E+000
 -2.870000000000000E-002    0.000000000000000E+000
 -2.860000000000000E-002    0.000000000000000E+000
 -2.850000000000000E-002    0.000000000000000E+000
 -2.840000000000000E-002    0.000000000000000E+000
 -2.830000000000000E-002    0.000000000000000E+000
 -2.820000000000000E-002    0.000000000000000E+000
 -2.810000000000000E-002    0.000000000000000E+000
 -2.800000000000000E-002    0.000000000000000E+000
 -2.790000000000000E-002    0.000000000000000E+000
 -2.780000000000000E-002    0.000000000000000E+000
 -2.770000000000000E-002    0.000000000000000E+000
 -2.760000000000000E-002    0.000000000000000E+000
 -2.750000000000000E-002    0.000000000000000E+000
 -2.740000000000000E-002    0.000000000000000E+000
 -2.730000000000000E-002    0.000000000000000E+000
 -2.720000000000000E-002    0.000000000000000E+000
 -2.710000000000000E-002    0.000000000000000E+000
 -2.700000000000000E-002    0.000000000000000E+000
 -2.690000000000000E-002    0.000000000000000E+000
 -2.680000000000000E-002    0.000000000000000E+000
 -2.670000000000000E-002    0.000000000000000E+000
 -2.660000000000000E-002    0.000000000000000E+000
 -2.650000000000000E-002    0.000000000000000E+000
 -2.640000000000000E-002    0.000000000000000E+000
 -2.630000000000000E-002    0.000000000000000E+000
 -2.620000000000000E-002    0.000000000000000E+000
 -2.610000000000000E-002    0.000000000000000E+000
 -2.600000000000000E-002    0.000000000000000E+000
 -2.590000000000000E-002    0.000000000000000E+000
 -2.580000000000000E-002    0.000000000000000E+000
 -2.570000000000000E-002    0.000000000000000E+000
 -2.560000000000000E-002    0.000000000000000E+000
 -2.550000000000000E-002    0.000000000000000E+000
 -2.540000000000000E-002    0.000000000000000E+000
 -2.530000000000000E-002    0.000000000000000E+000
 -2.520000000000000E-002    0.000000000000000E+000
 -2.510000000000000E-002    0.000000000000000E+000
 -2.500000000000000E-002    0.000000000000000E+000
 -2.490000000000000E-002    0.000000000000000E+000
 -2.480000000000000E-002    0.000000000000000E+000
 -2.470000000000000E-002    0.000000000000000E+000
 -2.460000000000000E-002    0.000000000000000E+000
 -2.450000000000000E-002    0.000000000000000E+000
 -2.440000000000000E-002    0.000000000000000E+000
 -2.430000000000000E-002    0.000000000000000E+000
 -2.420000000000000E-002    0.000000000000000E+000
 -2.410000000000000E-002    0.000000000000000E+000
 -2.400000000000000E-002    0.000000000000000E+000
 -2.390000000000000E-002    0.000000000000000E+000
 -2.380000000000000E-002    0.000000000000000E+000
 -2.370000000000000E-002    0.000000000000000E+000
 -2.360000000000000E-002    0.000000000000000E+000
 -2.350000000000000E-002    0.000000000000000E+000
 -2.340000000000000E-002    0.000000000000000E+000
 -2.330000000000000E-002    0.000000000000000E+000
 -2.320000000000000E-002    0.000000000000000E+000
 -2.310000000000000E-002    0.000000000000000E+000
 -2.300000000000000E-002    0.000000000000000E+000
 -2.290000000000000E-002    0.000000000000000E+000
 -2.280000000000000E-002    0.000000000000000E+000
 -2.270000000000000E-002    0.000000000000000E+000
 -2.260000000000000E-002    0.000000000000000E+000
 -2.250000000000000E-002    0.000000000000000E+000
 -2.240000000000000E-002    0.000000000000000E+000
 -2.230000000000000E-002    0.000000000000000E+000
 -2.220000000000000E-002    0.000000000000000E+000
 -2.210000000000000E-002    0.000000000000000E+000
 -2.200000000000000E-002    0.000000000000000E+000
 -2.190000000000000E-002    0.000000000000000E+000
 -2.180000000000000E-002    0.000000000000000E+000
 -2.170000000000000E-002    0.000000000000000E+000
 -2.160000000000000E-002    0.000000000000000E+000
 -2.150000000000000E-002    0.000000000000000E+000
 -2.140000000000000E-002    0.000000000000000E+000
 -2.130000000000000E-002    0.000000000000000E+000
 -2.120000000000000E-002    0.000000000000000E+000
 -2.110000000000000E-002    0.000000000000000E+000
 -2.100000000000000E-002    0.000000000000000E+000
 -2.090000000000000E-002    0.000000000000000E+000
 -2.080000000000000E-002    0.000000000000000E+000
 -2.070000000000000E-002    0.000000000000000E+000
 -2.060000000000000E-002    0.000000000000000E+000
 -2.050000000000000E-002    0.000000000000000E+000
 -2.040000000000000E-002    0.000000000000000E+000
 -2.030000000000000E-002    0.000000000000000E+000
 -2.020000000000000E-002    0.000000000000000E+000
 -2.010000000000000E-002    0.000000000000000E+000
 -2.000000000000000E-002    0.000000000000000E+000
 -1.990000000000000E-002    0.000000000000000E+000
 -1.980000000000000E-002    0.000000000000000E+000
 -1.970000000000000E-002    0.000000000000000E+000
 -1.960000000000000E-002    0.000000000000000E+000
 -1.950000000000000E-002    0.000000000000000E+000
 -1.940000000000000E-002    0.000000000000000E+000
 -1.930000000000000E-002    0.000000000000000E+000
 -1.920000000000000E-002    0.000000000000000E+000
 -1.910000000000000E-002    0.000000000000000E+000
 -1.900000000000000E-002    0.000000000000000E+000
 -1.890000000000000E-002    0.000000000000000E+000
 -1.880000000000000E-002    0.000000000000000E+000
 -1.870000000000000E-002    0.000000000000000E+000
 -1.860000000000000E-002    0.000000000000000E+000
 -1.850000000000000E-002    0.000000000000000E+000
 -1.840000000000000E-002    0.000000000000000E+000
 -1.830000000000000E-002    0.000000000000000E+000
 -1.820000000000000E-002    0.000000000000000E+000
 -1.810000000000000E-002    0.000000000000000E+000
 -1.800000000000000E-002    0.000000000000000E+000
 -1.790000000000000E-002    0.000000000000000E+000
 -1.780000000000000E-002    0.000000000000000E+000
 -1.770000000000000E-002    0.000000000000000E+000
 -1.760000000000000E-002    0.000000000000000E+000
 -1.750000000000000E-002    0.000000000000000E+000
 -1.740000000000000E-002    0.000000000000000E+000
 -1.730000000000000E-002    0.000000000000000E+000
 -1.720000000000000E-002    0.000000000000000E+000
 -1.710000000000000E-002    0.000000000000000E+000
 -1.700000000000000E-002    0.000000000000000E+000
 -1.690000000000000E-002    0.000000000000000E+000
 -1.680000000000000E-002    0.000000000000000E+000
 -1.670000000000000E-002    0.000000000000000E+000
 -1.660000000000000E-002    0.000000000000000E+000
 -1.650000000000000E-002    0.000000000000000E+000
 -1.640000000000000E-002    0.000000000000000E+000
 -1.630000000000000E-002    0.000000000000000E+000
 -1.620000000000000E-002    0.000000000000000E+000
 -1.610000000000000E-002    0.000000000000000E+000
 -1.600000000000000E-002    0.000000000000000E+000
 -1.590000000000000E-002    0.000000000000000E+000
 -1.580000000000000E-002    0.000000000000000E+000
 -1.570000000000000E-002    0.000000000000000E+000
 -1.560000000000000E-002    0.000000000000000E+000
 -1.550000000000000E-002    0.000000000000000E+000
 -1.540000000000000E-002    0.000000000000000E+000
 -1.530000000000000E-002    0.000000000000000E+000
 -1.520000000000000E-002    0.000000000000000E+000
 -1.510000000000000E-002    0.000000000000000E+000
 -1.500000000000000E-002    0.000000000000000E+000
 -1.490000000000000E-002    0.000000000000000E+000
 -1.480000000000000E-002    0.000000000000000E+000
 -1.470000000000000E-002    0.000000000000000E+000
 -1.460000000000000E-002    0.000000000000000E+000
 -1.450000000000000E-002    0.000000000000000E+000
 -1.440000000000000E-002    0.000000000000000E+000
 -1.430000000000000E-002    0.000000000000000E+000
 -1.420000000000000E-002    0.000000000000000E+000
 -1.410000000000000E-002    0.000000000000000E+000
 -1.400000000000000E-002    0.000000000000000E+000
 -1.390000000000000E-002    0.000000000000000E+000
 -1.380000000000000E-002    0.000000000000000E+000
 -1.370000000000000E-002    0.000000000000000E+000
 -1.360000000000000E-002    0.000000000000000E+000
 -1.350000000000000E-002    0.000000000000000E+000
 -1.340000000000000E-002    0.000000000000000E+000
 -1.330000000000000E-002    0.000000000000000E+000
 -1.320000000000000E-002    0.000000000000000E+000
 -1.310000000000000E-002    0.000000000000000E+000
 -1.300000000000000E-002    0.000000000000000E+000
 -1.290000000000000E-002    0.000000000000000E+000
 -1.280000000000000E-002    0.000000000000000E+000
 -1.270000000000000E-002    0.000000000000000E+000
 -1.260000000000000E-002    0.000000000000000E+000
 -1.250000000000000E-002    0.000000000000000E+000
 -1.240000000000000E-002    0.000000000000000E+000
 -1.230000000000000E-002    0.000000000000000E+000
 -1.220000000000000E-002    0.000000000000000E+000
 -1.210000000000000E-002    0.000000000000000E+000
 -1.200000000000000E-002    0.000000000000000E+000
 -1.190000000000000E-002    0.000000000000000E+000
 -1.180000000000000E-002    0.000000000000000E+000
 -1.170000000000000E-002    0.000000000000000E+000
 -1.160000000000000E-002    0.000000000000000E+000
 -1.150000000000000E-002    0.000000000000000E+000
 -1.140000000000000E-002    0.000000000000000E+000
 -1.130000000000000E-002    0.000000000000000E+000
 -1.120000000000000E-002    0.000000000000000E+000
 -1.110000000000000E-002    0.000000000000000E+000
 -1.100000000000000E-002    0.000000000000000E+000
 -1.090000000000000E-002    0.000000000000000E+000
 -1.080000000000000E-002    0.000000000000000E+000
 -1.070000000000000E-002    0.000000000000000E+000
 -1.060000000000000E-002    0.000000000000000E+000
 -1.050000000000000E-002    0.000000000000000E+000
 -1.040000000000000E-002    0.000000000000000E+000
 -1.030000000000000E-002    0.000000000000000E+000
 -1.020000000000000E-002    0.000000000000000E+000
 -1.010000000000000E-002    0.000000000000000E+000
 -1.000000000000000E-002    0.000000000000000E+000
 -9.899999999999999E-003    0.000000000000000E+000
 -9.800000000000000E-003    0.000000000000000E+000
 -9.699999999999999E-003    0.000000000000000E+000
 -9.599999999999999E-003    0.000000000000000E+000
 -9.500000000000000E-003    0.000000000000000E+000
 -9.399999999999999E-003    0.000000000000000E+000
 -9.299999999999999E-003    0.000000000000000E+000
 -9.200000000000000E-003    0.000000000000000E+000
 -9.099999999999999E-003    0.000000000000000E+000
 -8.999999999999999E-003    0.000000000000000E+000
 -8.900000000000000E-003    0.000000000000000E+000
 -8.799999999999999E-003    0.000000000000000E+000
 -8.699999999999999E-003    0.000000000000000E+000
 -8.600000000000000E-003    0.000000000000000E+000
 -8.499999999999999E-003    0.000000000000000E+000
 -8.399999999999999E-003    0.000000000000000E+000
 -8.300000000000000E-003    0.000000000000000E+000
 -8.199999999999999E-003    0.000000000000000E+000
 -8.100000000000000E-003    0.000000000000000E+000
 -8.000000000000000E-003    0.000000000000000E+000
 -7.899999999999999E-003    0.000000000000000E+000
 -7.800000000000000E-003    0.000000000000000E+000
 -7.699999999999999E-003    0.000000000000000E+000
 -7.599999999999999E-003    0.000000000000000E+000
 -7.499999999999999E-003    0.000000000000000E+000
 -7.399999999999999E-003    0.000000000000000E+000
 -7.299999999999999E-003    0.000000000000000E+000
 -7.199999999999999E-003    0.000000000000000E+000
 -7.100000000000000E-003    0.000000000000000E+000
 -6.999999999999999E-003    0.000000000000000E+000
 -6.899999999999999E-003    0.000000000000000E+000
 -6.800000000000000E-003    0.000000000000000E+000
 -6.699999999999999E-003    6.414635304221270E-048
 -6.599999999999999E-003    1.282927060844254E-047
 -6.499999999999999E-003    1.924390591266381E-047
 -6.399999999999999E-003    2.565854121688508E-047
 -6.299999999999999E-003    2.565854121688508E-047
 -6.199999999999999E-003    1.924390591266381E-047
 -6.100000000000000E-003    6.414635304221270E-048
 -5.999999999999999E-003    2.914641759724954E-047
 -5.899999999999999E-003    2.187649758579877E-047
 -5.800000000000000E-003    1.710569414459005E-048
 -5.699999999999999E-003    2.993496475303259E-047
 -5.599999999999999E-003    4.105366594701613E-047
 -5.499999999999999E-003    3.157879661604514E-047
 -5.399999999999999E-003    1.888300111049551E-047
 -5.299999999999999E-003   -1.644420883925573E-046
 -5.199999999999999E-003   -3.099200516589510E-046
 -5.099999999999999E-003   -4.363148011605099E-046
 -4.999999999999999E-003   -5.451094766124175E-046
 -4.899999999999999E-003   -6.435739980261246E-046
 -4.799999999999999E-003   -8.691817735663058E-046
 -4.699999999999999E-003   -1.042990395324013E-045
 -4.599999999999999E-003   -8.413706392119080E-046
 -4.499999999999999E-003   -5.193179925065622E-046
 -4.399999999999999E-003    4.777423974961099E-047
 -4.299999999999999E-003    1.032871703163446E-045
 -4.199999999999999E-003    1.326797269532941E-045
 -4.099999999999999E-003    2.657365855498031E-045
 -3.999999999999999E-003    3.925244538210296E-045
 -3.899999999999999E-003    5.433230793954776E-045
 -3.799999999999999E-003    6.248719866705578E-045
 -3.699999999999999E-003    6.328400283368932E-045
 -3.599999999999999E-003    5.604299712120409E-045
 -3.499999999999999E-003    4.094017188055727E-045
 -3.399999999999999E-003    1.945193264872306E-045
 -3.299999999999999E-003   -2.514594202778566E-045
 -3.199999999999999E-003   -8.288865465584410E-045
 -3.099999999999999E-003   -1.526921397503520E-044
 -2.999999999999999E-003   -2.342031350019526E-044
 -2.899999999999999E-003   -3.178279006208582E-044
 -2.799999999999999E-003   -3.918022654998178E-044
 -2.699999999999999E-003   -4.461309906213151E-044
 -2.599999999999999E-003   -4.643881744145706E-044
 -2.499999999999999E-003   -4.201077099835126E-044
 -2.399999999999999E-003   -3.008136270650550E-044
 -2.299999999999999E-003   -8.881554755659956E-045
 -2.199999999999999E-003    2.302973982464608E-044
 -2.099999999999999E-003    6.432648691989249E-044
 -1.999999999999999E-003    1.149278646871058E-043
 -1.899999999999999E-003    1.711801085819448E-043
 -1.799999999999999E-003    2.263162578490721E-043
 -1.699999999999999E-003    2.724979287265222E-043
 -1.599999999999999E-003    3.009881327262917E-043
 -1.499999999999999E-003    2.992074377661177E-043
 -1.399999999999999E-003    2.544732672205750E-043
 -1.299999999999999E-003    1.558372536921673E-043
 -1.199999999999999E-003   -4.869246476880410E-045
 -1.099999999999999E-003   -2.317735924450245E-043
 -9.999999999999989E-004   -5.191912639193309E-043
 -8.999999999999990E-004   -8.517075406313116E-043
 -7.999999999999990E-004   -1.201586838009654E-042
 -6.999999999999989E-004   -1.528832436201600E-042
 -5.999999999999990E-004   -1.779263934395338E-042
 -4.999999999999989E-004   -1.886909464853096E-042
 -3.999999999999989E-004   -1.781151346507598E-042
 -2.999999999999989E-004   -1.391617152199889E-042
 -1.999999999999989E-004   -6.599583771292129E-043
 -9.999999999999892E-005    4.490257290809860E-043
  1.084202172485504E-018    1.932425711816410E-042
  1.000000000000011E-004    3.736159234591381E-042
  2.000000000000011E-004    5.742760436035570E-042
  3.000000000000011E-004    7.762950491649190E-042
  4.000000000000011E-004    9.531477580913233E-042
  5.000000000000011E-004    1.071821190808884E-041
  6.000000000000011E-004    1.094554548301902E-041
  7.000000000000011E-004    9.819745806958189E-042
  8.000000000000011E-004    6.981026490032947E-042
  9.000000000000012E-004    2.160693306703619E-042
  1.000000000000001E-003   -4.748811971676502E-042
  1.100000000000001E-003   -1.361988258027971E-041
  1.200000000000001E-003   -2.402269997817882E-041
  1.300000000000001E-003   -3.517040150884868E-041
  1.400000000000001E-003   -4.589197894360203E-041
  1.500000000000001E-003   -5.464579881513801E-041
  1.600000000000001E-003   -5.959138139174541E-041
  1.700000000000001E-003   -5.871994000826270E-041
  1.800000000000001E-003   -5.004788878610260E-041
  1.900000000000001E-003   -3.189214441363049E-041
  2.000000000000001E-003   -3.185119979400178E-042
  2.100000000000001E-003    3.616893038540167E-041
  2.200000000000001E-003    8.494123911614450E-041
  2.300000000000001E-003    1.402793661710216E-040
  2.400000000000001E-003    1.975025740257456E-040
  2.500000000000001E-003    2.500697437057523E-040
  2.600000000000001E-003    2.897706664584202E-040
  2.700000000000001E-003    3.071944335009469E-040
  2.800000000000001E-003    2.925068951329424E-040
  2.900000000000001E-003    2.365473881788325E-040
  3.000000000000001E-003    1.322101922988555E-040
  3.100000000000001E-003   -2.398182563319199E-041
  3.200000000000001E-003   -2.302257781191078E-040
  3.300000000000001E-003   -4.779053204755437E-040
  3.400000000000001E-003   -7.504126888346145E-040
  3.500000000000001E-003   -1.022575299685946E-039
  3.600000000000001E-003   -1.260964601441954E-039
  3.700000000000001E-003   -1.425334574412169E-039
  3.800000000000001E-003   -1.471375786683314E-039
  3.900000000000001E-003   -1.354850176854866E-039
  4.000000000000001E-003   -1.037051509877722E-039
  4.100000000000001E-003   -4.913222182103768E-040
  4.200000000000001E-003    2.898475856668635E-040
  4.300000000000001E-003    1.287827539369326E-039
  4.400000000000001E-003    2.451861134939822E-039
  4.500000000000001E-003    3.695144448275978E-039
  4.600000000000002E-003    4.894075164559486E-039
  4.700000000000001E-003    5.891765404309808E-039
  4.800000000000001E-003    6.506679218322660E-039
  4.900000000000002E-003    6.546907449739604E-039
  5.000000000000001E-003    5.830051719084520E-039
  5.100000000000001E-003    4.207995132261595E-039
  5.200000000000001E-003    1.595013836907938E-039
  5.300000000000002E-003   -2.003197132202700E-039
  5.400000000000001E-003   -6.462798361983789E-039
  5.500000000000001E-003   -1.152131497733553E-038
  5.600000000000002E-003   -1.676767686454999E-038
  5.700000000000001E-003   -2.164706177184098E-038
  5.800000000000001E-003   -2.548429054110130E-038
  5.900000000000002E-003   -2.752827762214516E-038
  6.000000000000001E-003   -2.701830840079070E-038
  6.100000000000001E-003   -2.327046637392799E-038
  6.200000000000002E-003   -1.577958348152409E-038
  6.300000000000002E-003   -4.328991999180702E-039
  6.400000000000001E-003    1.090275152899252E-038
  6.500000000000001E-003    2.925168726818345E-038
  6.600000000000002E-003    4.951001995807757E-038
  6.700000000000001E-003    6.991505022145390E-038
  6.800000000000001E-003    8.819971212357694E-038
  6.900000000000002E-003    1.017153807225977E-037
  7.000000000000001E-003    1.076321264682279E-037
  7.100000000000001E-003    1.032134401528156E-037
  7.200000000000002E-003    8.615339601632690E-038
  7.300000000000002E-003    5.495304073590308E-038
  7.400000000000001E-003    9.302864138546153E-039
  7.500000000000001E-003   -4.957167115670506E-038
  7.600000000000002E-003   -1.186507336383122E-037
  7.700000000000001E-003   -1.929987483730618E-037
  7.800000000000001E-003   -2.658299269411798E-037
  7.900000000000001E-003   -3.287993896890637E-037
  8.000000000000002E-003   -3.725425216604705E-037
  8.100000000000001E-003   -3.874618227946970E-037
  8.200000000000001E-003   -3.647312008217557E-037
  8.300000000000002E-003   -2.974556968876369E-037
  8.400000000000001E-003   -1.818924703154783E-037
  8.500000000000002E-003   -1.860856382543831E-038
  8.600000000000002E-003    1.865684808503218E-037
  8.700000000000001E-003    4.219626156985461E-037
  8.800000000000002E-003    6.699699439582491E-037
  8.900000000000002E-003    9.076109318881257E-037
  9.000000000000001E-003    1.107789694460535E-036
  9.100000000000002E-003    1.241274224492087E-036
  9.200000000000002E-003    1.279328078543556E-036
  9.300000000000001E-003    1.196841129827366E-036
  9.400000000000002E-003    9.757150132746543E-037
  9.500000000000001E-003    6.081846575722605E-037
  9.600000000000001E-003    9.969884863461696E-038
  9.700000000000002E-003   -5.290356900774904E-037
  9.800000000000001E-003   -1.241223326286968E-036
  9.900000000000001E-003   -1.984668869040038E-036
  1.000000000000000E-002   -2.694176862250218E-036
  1.010000000000000E-002   -3.295690421224593E-036
  1.020000000000000E-002   -3.712006210085148E-036
  1.030000000000000E-002   -3.869696776509484E-036
  1.040000000000000E-002   -3.706690947844604E-036
  1.050000000000000E-002   -3.179788310267766E-036
  1.060000000000000E-002   -2.271322872466008E-036
  1.070000000000000E-002   -9.941767751367966E-037
  1.080000000000000E-002    6.055479158506341E-037
  1.090000000000000E-002    2.448686684105844E-036
  1.100000000000000E-002    4.426167705542063E-036
  1.110000000000000E-002    6.404998961147004E-036
  1.120000000000000E-002    8.236521287610182E-036
  1.130000000000000E-002    9.766032036446426E-036
  1.140000000000000E-002    1.084266489789604E-035
  1.150000000000000E-002    1.132832213319028E-035
  1.160000000000000E-002    1.110463888492765E-035
  1.170000000000000E-002    1.007728582166627E-035
  1.180000000000000E-002    8.177579379176751E-036
  1.190000000000000E-002    5.362077633870152E-036
  1.200000000000000E-002    1.611621774772668E-036
  1.210000000000000E-002   -3.067908376423128E-036
  1.220000000000000E-002   -8.640515067621824E-036
  1.230000000000000E-002   -1.502808519398250E-035
  1.240000000000000E-002   -2.208956797811778E-035
  1.250000000000000E-002   -2.959059613202573E-035
  1.260000000000000E-002   -3.716529929809555E-035
  1.270000000000000E-002   -4.427453870383765E-035
  1.280000000000000E-002   -5.016812342772987E-035
  1.290000000000000E-002   -5.386137764104715E-035
  1.300000000000000E-002   -5.413928972077579E-035
  1.310000000000000E-002   -4.960207496581761E-035
  1.320000000000000E-002   -3.876559513796432E-035
  1.330000000000000E-002   -2.022628674768466E-035
  1.340000000000000E-002    7.106315259799936E-036
  1.350000000000000E-002    4.371594925817603E-035
  1.360000000000000E-002    8.914377186007614E-035
  1.370000000000000E-002    1.416441938371871E-034
  1.380000000000000E-002    1.978796227247801E-034
  1.390000000000000E-002    2.527154329682923E-034
  1.400000000000000E-002    2.991846242126005E-034
  1.410000000000000E-002    3.286916417601867E-034
  1.420000000000000E-002    3.315186996522033E-034
  1.430000000000000E-002    2.976746584741445E-034
  1.440000000000000E-002    2.180942255133570E-034
  1.450000000000000E-002    8.614902849747683E-035
  1.460000000000000E-002   -1.006260856010699E-034
  1.470000000000000E-002   -3.387489274644565E-034
  1.480000000000000E-002   -6.171701882118491E-034
  1.490000000000000E-002   -9.160872633883578E-034
  1.500000000000000E-002   -1.206497293292232E-033
  1.510000000000000E-002   -1.450790694971905E-033
  1.520000000000000E-002   -1.604653388972701E-033
  1.530000000000000E-002   -1.620447772325312E-033
  1.540000000000000E-002   -1.452109407819960E-033
  1.550000000000000E-002   -1.061406808691542E-033
  1.560000000000000E-002   -4.251852230646759E-034
  1.570000000000000E-002    4.570286468640328E-034
  1.580000000000000E-002    1.555927312839952E-033
  1.590000000000000E-002    2.806886007104672E-033
  1.600000000000000E-002    4.107166134548029E-033
  1.610000000000000E-002    5.317040457334003E-033
  1.620000000000000E-002    6.265871144355638E-033
  1.630000000000000E-002    6.763829765408822E-033
  1.640000000000000E-002    6.619463131044958E-033
  1.650000000000000E-002    5.662581202015329E-033
  1.660000000000000E-002    3.771169937272999E-033
  1.670000000000000E-002    9.001131469146058E-034
  1.680000000000000E-002   -2.891331262694974E-033
  1.690000000000000E-002   -7.417059740147979E-033
  1.700000000000000E-002   -1.235087227616873E-032
  1.710000000000000E-002   -1.722662032348046E-032
  1.720000000000000E-002   -2.145550221609419E-032
  1.730000000000000E-002   -2.436304284242456E-032
  1.740000000000000E-002   -2.524669338876220E-032
  1.750000000000000E-002   -2.345248892239923E-032
  1.760000000000000E-002   -1.846661715073533E-032
  1.770000000000000E-002   -1.001465358809507E-032
  1.780000000000000E-002    1.841612676456247E-033
  1.790000000000000E-002    1.662217281077419E-032
  1.800000000000000E-002    3.337553009695656E-032
  1.810000000000000E-002    5.066830387967019E-032
  1.820000000000000E-002    6.662988556744043E-032
  1.830000000000000E-002    7.906131816244120E-032
  1.840000000000000E-002    8.561161220230444E-032
  1.850000000000000E-002    8.401746080615326E-032
  1.860000000000000E-002    7.239360723671879E-032
  1.870000000000000E-002    4.955165079425529E-032