 -4.000000000000000E-002    0.000000000000000E+000
 -3.990000000000000E-002    0.000000000000000E+000
 -3.980000000000000E-002    0.000000000000000E+000
 -3.970000000000000E-002    0.000000000000000E+000
 -3.960000000000000E-002    0.000000000000000E+000
 -3.950000000000000E-002    0.000000000000000E+000
 -3.940000000000000E-002    0.000000000000000E+000
 -3.930000000000000E-002    0.000000000000000E+000
 -3.920000000000000E-002    0.000000000000000E+000
 -3.910000000000000E-002    0.000000000000000E+000
 -3.900000000000000E-002    0.000000000000000E+000
 -3.890000000000000E-002    0.000000000000000E+000
 -3.880000000000000E-002    0.000000000000000E+000
 -3.870000000000000E-002    0.000000000000000E+000
 -3.860000000000000E-002    0.000000000000000E+000
 -3.850000000000000E-002    0.000000000000000E+000
 -3.840000000000000E-002    0.000000000000000E+000
 -3.830000000000000E-002    0.000000000000000E+000
 -3.820000000000000E-002    0.000000000000000E+000
 -3.810000000000000E-002    0.000000000000000E+000
 -3.800000000000000E-002    0.000000000000000E+000
 -3.790000000000000E-002    0.000000000000000E+000
 -3.780000000000000E-002    0.000000000000000E+000
 -3.770000000000000E-002    0.000000000000000E+000
 -3.760000000000000E-002    0.000000000000000E+000
 -3.750000000000000E-002    0.000000000000000E+000
 -3.740000000000000E-002    0.000000000000000E+000
 -3.730000000000000E-002    0.000000000000000E+000
 -3.720000000000000E-002    0.000000000000000E+000
 -3.710000000000000E-002    0.000000000000000E+000
 -3.700000000000000E-002    0.000000000000000E+000
 -3.690000000000000E-002    0.000000000000000E+000
 -3.680000000000000E-002    0.000000000000000E+000
 -3.670000000000000E-002    0.000000000000000E+000
 -3.660000000000000E-002    0.000000000000000E+000
 -3.650000000000000E-002    0.000000000000000E+000
 -3.640000000000000E-002    0.000000000000000E+000
 -3.630000000000000E-002    0.000000000000000E+000
 -3.620000000000000E-002    0.000000000000000E+000
 -3.610000000000000E-002    0.000000000000000E+000
 -3.600000000000000E-002    0.000000000000000E+000
 -3.590000000000000E-002    0.000000000000000E+000
 -3.580000000000000E-002    0.000000000000000E+000
 -3.570000000000000E-002    0.000000000000000E+000
 -3.560000000000000E-002    0.000000000000000E+000
 -3.550000000000000E-002    0.000000000000000E+000
 -3.540000000000000E-002    0.000000000000000E+000
 -3.530000000000000E-002    0.000000000000000E+000
 -3.520000000000000E-002    0.000000000000000E+000
 -3.510000000000000E-002    0.000000000000000E+000
 -3.500000000000000E-002    0.000000000000000E+000
 -3.490000000000000E-002    0.000000000000000E+000
 -3.480000000000000E-002    0.000000000000000E+000
 -3.470000000000000E-002    0.000000000000000E+000
 -3.460000000000000E-002    0.000000000000000E+000
 -3.450000000000000E-002    0.000000000000000E+000
 -3.440000000000000E-002    0.000000000000000E+000
 -3.430000000000000E-002    0.000000000000000E+000
 -3.420000000000000E-002    0.000000000000000E+000
 -3.410000000000000E-002    0.000000000000000E+000
 -3.400000000000000E-002    0.000000000000000E+000
 -3.390000000000000E-002    0.000000000000000E+000
 -3.380000000000000E-002    0.000000000000000E+000
 -3.370000000000000E-002    0.000000000000000E+000
 -3.360000000000000E-002    0.000000000000000E+000
 -3.350000000000000E-002    0.000000000000000E+000
 -3.340000000000000E-002    0.000000000000000E+000
 -3.330000000000000E-002    0.000000000000000E+000
 -3.320000000000000E-002    0.000000000000000E+000
 -3.310000000000000E-002    0.000000000000000E+000
 -3.300000000000000E-002    0.000000000000000E+000
 -3.290000000000000E-002    0.000000000000000E+000
 -3.280000000000000E-002    0.000000000000000E+000
 -3.270000000000000E-002    0.000000000000000E+000
 -3.260000000000000E-002    0.000000000000000E+000
 -3.250000000000000E-002    0.000000000000000E+000
 -3.240000000000000E-002    0.000000000000000E+000
 -3.230000000000000E-002    0.000000000000000E+000
 -3.220000000000000E-002    0.000000000000000E+000
 -3.210000000000000E-002    0.000000000000000E+000
 -3.200000000000000E-002    0.000000000000000E+000
 -3.190000000000000E-002    0.000000000000000E+000
 -3.180000000000000E-002    0.000000000000000E+000
 -3.170000000000000E-002    0.000000000000000E+000
 -3.160000000000000E-002    0.000000000000000E+000
 -3.150000000000000E-002    0.000000000000000E+000
 -3.140000000000000E-002    0.000000000000000E+000
 -3.130000000000000E-002    0.000000000000000E+000
 -3.120000000000000E-002    0.000000000000000E+000
 -3.110000000000000E-002    0.000000000000000E+000
 -3.100000000000000E-002    0.000000000000000E+000
 -3.090000000000000E-002    0.000000000000000E+000
 -3.080000000000000E-002    0.000000000000000E+000
 -3.070000000000000E-002    0.000000000000000E+000
 -3.060000000000000E-002    0.000000000000000E+000
 -3.050000000000000E-002    0.000000000000000E+000
 -3.040000000000000E-002    0.000000000000000E+000
 -3.030000000000000E-002    0.000000000000000E+000
 -3.020000000000000E-002    0.000000000000000E+000
 -3.010000000000000E-002    0.000000000000000E+000
 -3.000000000000000E-002    0.000000000000000E+000
 -2.990000000000000E-002    0.000000000000000E+000
 -2.980000000000000E-002    0.000000000000000E+000
 -2.970000000000000E-002    0.000000000000000E+000
 -2.960000000000000E-002    0.000000000000000E+000
 -2.950000000000000E-002    0.000000000000000E+000
 -2.940000000000000E-002    0.000000000000000E+000
 -2.930000000000000E-002    0.000000000000000E+000
 -2.920000000000000E-002    0.000000000000000E+000
 -2.910000000000000E-002    0.000000000000000E+000
 -2.900000000000000E-002    0.000000000000000E+000
 -2.890000000000000E-002    0.000000000000000E+000
 -2.880000000000000E-002    0.000000000000000E+000
 -2.870000000000000E-002    0.000000000000000E+000
 -2.860000000000000E-002    0.000000000000000E+000
 -2.850000000000000E-002    0.000000000000000E+000
 -2.840000000000000E-002    0.000000000000000E+000
 -2.830000000000000E-002    0.000000000000000E+000
 -2.820000000000000E-002    0.000000000000000E+000
 -2.810000000000000E-002    0.000000000000000E+000
 -2.800000000000000E-002    0.000000000000000E+000
 -2.790000000000000E-002    0.000000000000000E+000
 -2.780000000000000E-002    0.000000000000000E+000
 -2.770000000000000E-002    0.000000000000000E+000
 -2.760000000000000E-002    0.000000000000000E+000
 -2.750000000000000E-002    0.000000000000000E+000
 -2.740000000000000E-002    0.000000000000000E+000
 -2.730000000000000E-002    0.000000000000000E+000
 -2.720000000000000E-002    0.000000000000000E+000
 -2.710000000000000E-002    0.000000000000000E+000
 -2.700000000000000E-002    0.000000000000000E+000
 -2.690000000000000E-002    0.000000000000000E+000
 -2.680000000000000E-002    0.000000000000000E+000
 -2.670000000000000E-002    0.000000000000000E+000
 -2.660000000000000E-002    0.000000000000000E+000
 -2.650000000000000E-002    0.000000000000000E+000
 -2.640000000000000E-002    0.000000000000000E+000
 -2.630000000000000E-002    0.000000000000000E+000
 -2.620000000000000E-002    0.000000000000000E+000
 -2.610000000000000E-002    0.000000000000000E+000
 -2.600000000000000E-002    0.000000000000000E+000
 -2.590000000000000E-002    0.000000000000000E+000
 -2.580000000000000E-002    0.000000000000000E+000
 -2.570000000000000E-002    0.000000000000000E+000
 -2.560000000000000E-002    0.000000000000000E+000
 -2.550000000000000E-002    0.000000000000000E+000
 -2.540000000000000E-002    0.000000000000000E+000
 -2.530000000000000E-002    0.000000000000000E+000
 -2.520000000000000E-002    0.000000000000000E+000
 -2.510000000000000E-002    0.000000000000000E+000
 -2.500000000000000E-002    0.000000000000000E+000
 -2.490000000000000E-002    0.000000000000000E+000
 -2.480000000000000E-002    0.000000000000000E+000
 -2.470000000000000E-002    0.000000000000000E+000
 -2.460000000000000E-002    0.000000000000000E+000
 -2.450000000000000E-002    0.000000000000000E+000
 -2.440000000000000E-002    0.000000000000000E+000
 -2.430000000000000E-002    0.000000000000000E+000
 -2.420000000000000E-002    0.000000000000000E+000
 -2.410000000000000E-002    0.000000000000000E+000
 -2.400000000000000E-002    0.000000000000000E+000
 -2.390000000000000E-002    0.000000000000000E+000
 -2.380000000000000E-002    0.000000000000000E+000
 -2.370000000000000E-002    0.000000000000000E+000
 -2.360000000000000E-002    0.000000000000000E+000
 -2.350000000000000E-002    0.000000000000000E+000
 -2.340000000000000E-002    0.000000000000000E+000
 -2.330000000000000E-002    0.000000000000000E+000
 -2.320000000000000E-002    0.000000000000000E+000
 -2.310000000000000E-002    0.000000000000000E+000
 -2.300000000000000E-002    0.000000000000000E+000
 -2.290000000000000E-002    0.000000000000000E+000
 -2.280000000000000E-002    0.000000000000000E+000
 -2.270000000000000E-002    0.000000000000000E+000
 -2.260000000000000E-002    0.000000000000000E+000
 -2.250000000000000E-002    0.000000000000000E+000
 -2.240000000000000E-002    0.000000000000000E+000
 -2.230000000000000E-002    0.000000000000000E+000
 -2.220000000000000E-002    0.000000000000000E+000
 -2.210000000000000E-002    0.000000000000000E+000
 -2.200000000000000E-002    0.000000000000000E+000
 -2.190000000000000E-002    0.000000000000000E+000
 -2.180000000000000E-002    0.000000000000000E+000
 -2.170000000000000E-002    0.000000000000000E+000
 -2.160000000000000E-002    0.000000000000000E+000
 -2.150000000000000E-002    0.000000000000000E+000
 -2.140000000000000E-002    0.000000000000000E+000
 -2.130000000000000E-002    0.000000000000000E+000
 -2.120000000000000E-002    0.000000000000000E+000
 -2.110000000000000E-002    0.000000000000000E+000
 -2.100000000000000E-002    0.000000000000000E+000
 -2.090000000000000E-002    0.000000000000000E+000
 -2.080000000000000E-002    0.000000000000000E+000
 -2.070000000000000E-002    0.000000000000000E+000
 -2.060000000000000E-002    0.000000000000000E+000
 -2.050000000000000E-002    0.000000000000000E+000
 -2.040000000000000E-002    0.000000000000000E+000
 -2.030000000000000E-002    0.000000000000000E+000
 -2.020000000000000E-002    0.000000000000000E+000
 -2.010000000000000E-002    0.000000000000000E+000
 -2.000000000000000E-002    0.000000000000000E+000
 -1.990000000000000E-002    0.000000000000000E+000
 -1.980000000000000E-002    0.000000000000000E+000
 -1.970000000000000E-002    0.000000000000000E+000
 -1.960000000000000E-002    0.000000000000000E+000
 -1.950000000000000E-002    0.000000000000000E+000
 -1.940000000000000E-002    0.000000000000000E+000
 -1.930000000000000E-002    0.000000000000000E+000
 -1.920000000000000E-002    0.000000000000000E+000
 -1.910000000000000E-002    0.000000000000000E+000
 -1.900000000000000E-002    0.000000000000000E+000
 -1.890000000000000E-002    0.000000000000000E+000
 -1.880000000000000E-002    0.000000000000000E+000
 -1.870000000000000E-002    0.000000000000000E+000
 -1.860000000000000E-002    0.000000000000000E+000
 -1.850000000000000E-002    0.000000000000000E+000
 -1.840000000000000E-002    0.000000000000000E+000
 -1.830000000000000E-002    0.000000000000000E+000
 -1.820000000000000E-002    0.000000000000000E+000
 -1.810000000000000E-002    0.000000000000000E+000
 -1.800000000000000E-002    0.000000000000000E+000
 -1.790000000000000E-002   -6.414635304221270E-048
 -1.780000000000000E-002   -1.282927060844254E-047
 -1.770000000000000E-002   -1.924390591266381E-047
 -1.760000000000000E-002   -1.924390591266381E-047
 -1.750000000000000E-002   -1.924390591266381E-047
 -1.740000000000000E-002   -1.282927060844254E-047
 -1.730000000000000E-002    2.138211768073757E-048
 -1.720000000000000E-002   -1.845535875688076E-047
 -1.710000000000000E-002   -9.047226977356232E-048
 -1.700000000000000E-002    1.325691296205729E-047
 -1.690000000000000E-002    8.552847072295026E-048
 -1.680000000000000E-002    1.710569414459005E-048
 -1.670000000000000E-002   -3.526688565074897E-047
 -1.660000000000000E-002   -5.819888059811661E-047
 -1.650000000000000E-002    3.971682682065727E-047
 -1.640000000000000E-002    6.041717742792611E-047
 -1.630000000000000E-002    7.108154124771631E-047
 -1.620000000000000E-002    1.857964720987840E-046
 -1.610000000000000E-002    3.732773406158058E-046
 -1.600000000000000E-002    5.175663314177378E-046
 -1.590000000000000E-002    6.840655075627008E-046
 -1.580000000000000E-002    7.512197435444384E-046
 -1.570000000000000E-002    6.253065484620088E-046
 -1.560000000000000E-002    2.933919495325200E-046
 -1.550000000000000E-002   -5.941101518042666E-046
 -1.540000000000000E-002   -5.153333645491099E-046
 -1.530000000000000E-002   -1.371060339046209E-045
 -1.520000000000000E-002   -1.337070797807410E-045
 -1.510000000000000E-002   -1.852040563507059E-045
 -1.500000000000000E-002   -2.170096194867873E-045
 -1.490000000000000E-002   -1.816597332030132E-045
 -1.480000000000000E-002   -1.569724355424949E-045
 -1.470000000000000E-002   -1.235966522671845E-045
 -1.460000000000000E-002    4.200527526630307E-046
 -1.450000000000000E-002    3.950298572360222E-045
 -1.440000000000000E-002    7.564808587398888E-045
 -1.430000000000000E-002    1.253756292427054E-044
 -1.420000000000000E-002    1.864121863109739E-044
 -1.410000000000000E-002    2.501203291377296E-044
 -1.400000000000000E-002    2.926905414856668E-044
 -1.390000000000000E-002    3.132804744018466E-044
 -1.380000000000000E-002    2.822536529308554E-044
 -1.370000000000000E-002    1.905101616182740E-044
 -1.360000000000000E-002    2.208732073557818E-045
 -1.350000000000000E-002   -2.563528110839557E-044
 -1.340000000000000E-002   -6.360702160336862E-044
 -1.330000000000000E-002   -1.101251955781518E-043
 -1.320000000000000E-002   -1.634125859181991E-043
 -1.310000000000000E-002   -2.173077009406930E-043
 -1.300000000000000E-002   -2.612050192229583E-043
 -1.290000000000000E-002   -2.841860170343586E-043
 -1.280000000000000E-002   -2.711533725911177E-043
 -1.270000000000000E-002   -2.055032056043125E-043
 -1.260000000000000E-002   -7.014918284408762E-044
 -1.250000000000000E-002    1.467009735580485E-043
 -1.240000000000000E-002    4.517535759991598E-043
 -1.230000000000000E-002    8.372282189375317E-043
 -1.220000000000000E-002    1.280530471412128E-042
 -1.210000000000000E-002    1.735579096864941E-042
 -1.200000000000000E-002    2.133543157673589E-042
 -1.190000000000000E-002    2.378223684371973E-042
 -1.180000000000000E-002    2.353478609347682E-042
 -1.170000000000000E-002    1.928148596643590E-042
 -1.160000000000000E-002    9.743645378535959E-043
 -1.150000000000000E-002   -6.143093250663299E-043
 -1.140000000000000E-002   -2.890560350506275E-042
 -1.130000000000000E-002   -5.821753852414956E-042
 -1.120000000000000E-002   -9.250748547641188E-042
 -1.110000000000000E-002   -1.286494452775157E-041
 -1.100000000000000E-002   -1.617131176941087E-041
 -1.090000000000000E-002   -1.848763399589520E-041
 -1.080000000000000E-002   -1.896868777847442E-041
 -1.070000000000000E-002   -1.665878319823176E-041
 -1.060000000000000E-002   -1.059783159989737E-041
 -1.050000000000000E-002    2.800635701517660E-044
 -1.040000000000000E-002    1.569203120201071E-041
 -1.030000000000000E-002    3.628743940296060E-041
 -1.020000000000000E-002    6.087873974043298E-041
 -1.010000000000000E-002    8.746859869243001E-041
 -1.000000000000000E-002    1.128220639887886E-040
 -9.899999999999999E-003    1.324109483252634E-040
 -9.800000000000000E-003    1.405359211506829E-040
 -9.699999999999999E-003    1.306869347609568E-040
 -9.599999999999999E-003    9.619072446907074E-041
 -9.500000000000000E-003    3.117643080625567E-041
 -9.399999999999999E-003   -6.815352827858747E-041
 -9.299999999999999E-003   -2.020116016115791E-040
 -9.200000000000000E-003   -3.654025493724953E-040
 -9.099999999999999E-003   -5.465882196741172E-040
 -8.999999999999999E-003   -7.259185975583154E-040
 -8.900000000000000E-003   -8.753704240805177E-040
 -8.799999999999999E-003   -9.591655223620927E-040
 -8.699999999999999E-003   -9.358407775674218E-040
 -8.600000000000000E-003   -7.620806991661834E-040
 -8.499999999999999E-003   -3.984687348582785E-040
 -8.399999999999999E-003    1.828914732604209E-040
 -8.300000000000000E-003    9.892561676522211E-040
 -8.199999999999999E-003    1.997370115550727E-039
 -8.100000000000000E-003    3.144013198528552E-039
 -8.000000000000000E-003    4.318575280835753E-039
 -7.899999999999999E-003    5.359597884346608E-039
 -7.800000000000000E-003    6.057464461442543E-039
 -7.699999999999999E-003    6.165363189258112E-039
 -7.599999999999999E-003    5.420277813559620E-039
 -7.499999999999999E-003    3.575002964929724E-039
 -7.399999999999999E-003    4.409236797393512E-040
 -7.299999999999999E-003   -4.060399206895948E-039
 -7.199999999999999E-003   -9.840883423490239E-039
 -7.100000000000000E-003   -1.659117926458038E-038
 -6.999999999999999E-003   -2.373619104783946E-038
 -6.899999999999999E-003   -3.041145762777363E-038
 -6.800000000000000E-003   -3.547205785933258E-038
 -6.699999999999999E-003   -3.754563431129778E-038
 -6.599999999999999E-003   -3.513913257339741E-038
 -6.499999999999999E-003   -2.680485096658318E-038
 -6.399999999999999E-003   -1.136483482610847E-038
 -6.299999999999999E-003    1.181588251422356E-038
 -6.199999999999999E-003    4.252776926877826E-038
 -6.100000000000000E-003    7.941909242039916E-038
 -5.999999999999999E-003    1.197460939438808E-037
 -5.899999999999999E-003    1.592247270293004E-037
 -5.800000000000000E-003    1.920434785597822E-037
 -5.699999999999999E-003    2.110959375034915E-037
 -5.599999999999999E-003    2.084827596508170E-037
 -5.499999999999999E-003    1.763125839022099E-037
 -5.399999999999999E-003    1.078007079989952E-037
 -5.299999999999999E-003   -1.379523342354637E-039
 -5.199999999999999E-003   -1.515873638622289E-037
 -5.099999999999999E-003   -3.377014046072364E-037
 -4.999999999999999E-003   -5.478106657845622E-037
 -4.899999999999999E-003   -7.623656977939408E-037
 -4.799999999999999E-003   -9.540730738834327E-037
 -4.699999999999999E-003   -1.088814437677453E-036
 -4.599999999999999E-003   -1.127827405827100E-036
 -4.499999999999999E-003   -1.031297953626635E-036
 -4.399999999999999E-003   -7.633660637145737E-037
 -4.299999999999999E-003   -2.983593015373955E-037
 -4.199999999999999E-003    3.721718377797126E-037
 -4.099999999999999E-003    1.232293916487059E-036
 -3.999999999999999E-003    2.235341110590759E-036
 -3.899999999999999E-003    3.299510805283208E-036
 -3.799999999999999E-003    4.306667278763871E-036
 -3.699999999999999E-003    5.105611904800224E-036
 -3.599999999999999E-003    5.520871849770955E-036
 -3.499999999999999E-003    5.367698690419140E-036
 -3.399999999999999E-003    4.473328309034300E-036
 -3.299999999999999E-003    2.703717749762827E-036
 -3.199999999999999E-003   -5.978461846242609E-039
 -3.099999999999999E-003   -3.620071572082254E-036
 -2.999999999999999E-003   -7.974029010045986E-036
 -2.899999999999999E-003   -1.275393202387674E-035
 -2.799999999999999E-003   -1.748900060816749E-035
 -2.699999999999999E-003   -2.156229035480053E-035
 -2.599999999999999E-003   -2.424407387842776E-035
 -2.499999999999999E-003   -2.475057497557691E-035
 -2.399999999999999E-003   -2.232834077895040E-035
 -2.299999999999999E-003   -1.636117332079118E-035
 -2.199999999999999E-003   -6.492485646542580E-036
 -2.099999999999999E-003    7.248279157361291E-036
 -1.999999999999999E-003    2.433054493694874E-035
 -1.899999999999999E-003    4.363760743569569E-035
 -1.799999999999999E-003    6.343203095020776E-035
 -1.699999999999999E-003    8.139141343550416E-035
 -1.599999999999999E-003    9.473105921140663E-035
 -1.499999999999999E-003    1.004235291445710E-034
 -1.399999999999999E-003    9.551513610258272E-035
 -1.299999999999999E-003    7.752645042203846E-035
 -1.199999999999999E-003    4.490891810826182E-035
 -1.099999999999999E-003   -2.486366178256570E-036
 -9.999999999999989E-004   -6.298577009313458E-035
 -8.999999999999990E-004   -1.327857449362762E-034
 -7.999999999999990E-004   -2.058353849258896E-034
 -6.999999999999989E-004   -2.739791014646208E-034
 -5.999999999999990E-004   -3.274156674377770E-034
 -4.999999999999989E-004   -3.555035527701867E-034
 -3.999999999999989E-004   -3.479041392986639E-034
 -2.999999999999989E-004   -2.960065164645068E-034
 -1.999999999999989E-004   -1.945231821316005E-034
 -9.999999999999892E-005   -4.309072404574539E-035
  1.084202172485504E-018    1.523382967517481E-034
  1.000000000000011E-004    3.785593105874088E-034
  2.000000000000011E-004    6.148910074909480E-034
  3.000000000000011E-004    8.338928196849477E-034
  4.000000000000011E-004    1.003192261422759E-033
  5.000000000000011E-004    1.088484223586259E-033
  6.000000000000011E-004    1.057623281495921E-033
  7.000000000000011E-004    8.855480047269168E-034
  8.000000000000011E-004    5.595983270141553E-034
  9.000000000000012E-004    8.459310495876502E-035
  1.000000000000001E-003   -5.131040605749386E-034
  1.100000000000001E-003   -1.183387613179000E-033
  1.200000000000001E-003   -1.852926267914595E-033
  1.300000000000001E-003   -2.429089636070798E-033
  1.400000000000001E-003   -2.807716419946937E-033
  1.500000000000001E-003   -2.884727331449161E-033
  1.600000000000001E-003   -2.571050972765121E-033
  1.700000000000001E-003   -1.809695850915804E-033
  1.800000000000001E-003   -5.931497649620587E-034
  1.900000000000001E-003    1.021278174785357E-033
  2.000000000000001E-003    2.900990532739428E-033
  2.100000000000001E-003    4.835464809717267E-033
  2.200000000000001E-003    6.544172061734933E-033
  2.300000000000001E-003    7.697060511378016E-033
  2.400000000000001E-003    7.948466838572006E-033
  2.500000000000001E-003    6.983624399814114E-033
  2.600000000000001E-003    4.574910747741113E-033
  2.700000000000001E-003    6.427134972005018E-034
  2.800000000000001E-003   -4.686413669647928E-033
  2.900000000000001E-003   -1.103348834567687E-032
  3.000000000000001E-003   -1.774299643498598E-032
  3.100000000000001E-003   -2.389130785655881E-032
  3.200000000000001E-003   -2.833638866844815E-032
  3.300000000000001E-003   -2.981462844598608E-032
  3.400000000000001E-003   -2.708562203828280E-032
  3.500000000000001E-003   -1.911946003514436E-032
  3.600000000000001E-003   -5.313208277900850E-033
  3.700000000000001E-003    1.428446353419012E-032
  3.800000000000001E-003    3.876960595393512E-032
  3.900000000000001E-003    6.623484433751539E-032
  4.000000000000001E-003    9.371454087652913E-032
  4.100000000000001E-003    1.172598376267313E-031
  4.200000000000001E-003    1.321729524193938E-031
  4.300000000000001E-003    1.334179491022210E-031
  4.400000000000001E-003    1.162061931800010E-031
  4.500000000000001E-003    7.673029860526982E-032
  4.600000000000002E-003    1.299323006604472E-032
  4.700000000000001E-003   -7.435023177147626E-032
  4.800000000000001E-003   -1.812485341457991E-031
  4.900000000000002E-003   -2.997329144492384E-031
  5.000000000000001E-003   -4.177584780508831E-031
  5.100000000000001E-003   -5.195347741119113E-031
  5.200000000000001E-003   -5.864502032286038E-031
  5.300000000000002E-003   -5.986431777301936E-031
  5.400000000000001E-003   -5.372079907528106E-031
  5.500000000000001E-003   -3.869332166734987E-031
  5.600000000000002E-003   -1.393764910945804E-031
  5.700000000000001E-003    2.040244430441302E-031
  5.800000000000001E-003    6.291930947587377E-031
  5.900000000000002E-003    1.107462819196716E-030
  6.000000000000001E-003    1.594912021602455E-030
  6.100000000000001E-003    2.033438263555597E-030
  6.200000000000002E-003    2.353929614684913E-030
  6.300000000000002E-003    2.481724794709104E-030
  6.400000000000001E-003    2.344318947638775E-030
  6.500000000000001E-003    1.880977565910853E-030
  6.600000000000002E-003    1.053587586095658E-030
  6.700000000000001E-003   -1.422624409931750E-031
  6.800000000000001E-003   -1.667289027029613E-030
  6.900000000000002E-003   -3.431136900291390E-030
  7.000000000000001E-003   -5.289246112148023E-030
  7.100000000000001E-003   -7.045495494907871E-030
  7.200000000000002E-003   -8.461859989031729E-030
  7.300000000000002E-003   -9.275763712804729E-030
  7.400000000000001E-003   -9.225082500259508E-030
  7.500000000000001E-003   -8.079760842752031E-030
  7.600000000000002E-003   -5.677947852883484E-030
  7.700000000000001E-003   -1.963469433574394E-030
  7.800000000000001E-003    2.979562415085397E-030
  7.900000000000001E-003    8.899907350174407E-030
  8.000000000000002E-003    1.536536514172381E-029
  8.100000000000001E-003    2.176695975296897E-029
  8.200000000000001E-003    2.734524946537006E-029
  8.300000000000002E-003    3.124118859399720E-029
  8.400000000000001E-003    3.257171044330919E-029
  8.500000000000002E-003    3.052726522640868E-029
  8.600000000000002E-003    2.448515507867149E-029
  8.700000000000001E-003    1.412910860595783E-029
  8.800000000000002E-003   -4.374166519912659E-031
  8.900000000000002E-003   -1.859927150028799E-029
  9.000000000000001E-003   -3.917502335575812E-029
  9.100000000000002E-003   -6.041526732818850E-029
  9.200000000000002E-003   -8.006692413566940E-029
  9.300000000000001E-003   -9.551180963581656E-029
  9.400000000000002E-003   -1.039809527797839E-028
  9.500000000000001E-003   -1.028379044156416E-028
  9.600000000000001E-003   -8.991387756955208E-029
  9.700000000000002E-003   -6.386809166329988E-029
  9.800000000000001E-003   -2.453687608532091E-029
  9.900000000000001E-003    2.677146811864405E-029
  1.000000000000000E-002    8.708336793406903E-029
  1.010000000000000E-002    1.517139965421799E-028
  1.020000000000000E-002    2.144079812246761E-028
  1.030000000000000E-002    2.676933055723179E-028
  1.040000000000000E-002    3.034560261101598E-028
  1.050000000000000E-002    3.137193285466682E-028
  1.060000000000000E-002    2.915826458675166E-028
  1.070000000000000E-002    2.322488458945090E-028
  1.080000000000000E-002    1.340398376400198E-028
  1.090000000000000E-002   -7.189384860578736E-031
  1.100000000000000E-002   -1.650762710136792E-028
  1.110000000000000E-002   -3.472249040658525E-028
  1.120000000000000E-002   -5.307759426611772E-028
  1.130000000000000E-002   -6.956163656232163E-028
  1.140000000000000E-002   -8.193785594963305E-028
  1.150000000000000E-002   -8.794842456350206E-028
  1.160000000000000E-002   -8.556534901943290E-028
  1.170000000000000E-002   -7.326892938867867E-028
  1.180000000000000E-002   -5.032759064925177E-028
  1.190000000000000E-002   -1.704757348945334E-028
  1.200000000000000E-002    2.504290031809643E-028
  1.210000000000000E-002    7.310973784684014E-028
  1.220000000000000E-002    1.230601579473497E-027
  1.230000000000000E-002    1.697428337520212E-027
  1.240000000000000E-002    2.073101945893131E-027
  1.250000000000000E-002    2.297345483745728E-027
  1.260000000000000E-002    2.314513405993455E-027
  1.270000000000000E-002    2.080814806803758E-027
  1.280000000000000E-002    1.571665963352410E-027
  1.290000000000000E-002    7.883533903119892E-028
  1.300000000000000E-002   -2.368927792111222E-028
  1.310000000000000E-002   -1.438320239747145E-027
  1.320000000000000E-002   -2.717367939443226E-027
  1.330000000000000E-002   -3.947257829596134E-027
  1.340000000000000E-002   -4.981703563858499E-027
  1.350000000000000E-002   -5.667580248113323E-027
  1.360000000000000E-002   -5.860870619360592E-027
  1.370000000000000E-002   -5.444732315998308E-027
  1.380000000000000E-002   -4.348018440970647E-027
  1.390000000000000E-002   -2.562225248268930E-027
  1.400000000000000E-002   -1.546166828189698E-028
  1.410000000000000E-002    2.724729195485730E-027
  1.420000000000000E-002    5.843951946179375E-027
  1.430000000000000E-002    8.899957058392405E-027
  1.440000000000000E-002    1.153914050890754E-026
  1.450000000000000E-002    1.338785146591721E-026
  1.460000000000000E-002    1.409099577729683E-026
  1.470000000000000E-002    1.335589351054447E-026
  1.480000000000000E-002    1.099738198942318E-026
  1.490000000000000E-002    6.979180615214418E-027
  1.500000000000000E-002    1.446075926358449E-027
  1.510000000000000E-002   -5.258541180709229E-027
  1.520000000000000E-002   -1.259459848426002E-026
  1.530000000000000E-002   -1.985014965582996E-026
  1.540000000000000E-002   -2.619061343263966E-026
  1.550000000000000E-002   -3.073132561569894E-026
  1.560000000000000E-002   -3.262941536293440E-026
  1.570000000000000E-002   -3.118810320868979E-026
  1.580000000000000E-002   -2.596363716979559E-026
  1.590000000000000E-002   -1.686303506569384E-026
  1.600000000000000E-002   -4.219606996493749E-027
  1.610000000000000E-002    1.116665104676442E-026
  1.620000000000000E-002    2.803495249101825E-026
  1.630000000000000E-002    4.472408719987828E-026
  1.640000000000000E-002    5.928998043040255E-026
  1.650000000000000E-002    6.967805408326146E-026
  1.660000000000000E-002    7.393994633427117E-026
  1.670000000000000E-002    7.047822038438630E-026
  1.680000000000000E-002    5.829553196520021E-026
  1.690000000000000E-002    3.722023192346620E-026
  1.700000000000000E-002    8.077906185950686E-027
  1.710000000000000E-002   -2.722127333357684E-026
  1.720000000000000E-002   -6.570491849620711E-026
  1.730000000000000E-002   -1.034884453543792E-025
  1.740000000000000E-002   -1.360585754379868E-025
  1.750000000000000E-002   -1.586825324655393E-025
  1.760000000000000E-002   -1.669177954980318E-025
  1.770000000000000E-002   -1.571824365279234E-025
  1.780000000000000E-002   -1.273302206831726E-025
  1.790000000000000E-002   -7.716479274649457E-026
  1.800000000000000E-002   -8.821651220108738E-027
  1.810000000000000E-002    7.305096598122437E-026
  1.820000000000000E-002    1.613703250338338E-025
  1.830000000000000E-002    2.469953910960177E-025
  1.840000000000000E-002    3.194121190345320E-025
  1.850000000000000E-002    3.677049372038327E-025
  1.860000000000000E-002    3.817545729169701E-025
  1.870000000000000E-002    3.535639647196311E-025