 -4.000000000000000E-002    0.000000000000000E+000
 -3.990000000000000E-002    0.000000000000000E+000
 -3.980000000000000E-002    0.000000000000000E+000
 -3.970000000000000E-002    0.000000000000000E+000
 -3.960000000000000E-002    0.000000000000000E+000
 -3.950000000000000E-002    0.000000000000000E+000
 -3.940000000000000E-002    0.000000000000000E+000
 -3.930000000000000E-002    0.000000000000000E+000
 -3.920000000000000E-002    0.000000000000000E+000
 -3.910000000000000E-002    0.000000000000000E+000
 -3.900000000000000E-002    0.000000000000000E+000
 -3.890000000000000E-002    0.000000000000000E+000
 -3.880000000000000E-002    0.000000000000000E+000
 -3.870000000000000E-002    0.000000000000000E+000
 -3.860000000000000E-002    0.000000000000000E+000
 -3.850000000000000E-002    0.000000000000000E+000
 -3.840000000000000E-002    0.000000000000000E+000
 -3.830000000000000E-002    0.000000000000000E+000
 -3.820000000000000E-002    0.000000000000000E+000
 -3.810000000000000E-002    0.000000000000000E+000
 -3.800000000000000E-002    0.000000000000000E+000
 -3.790000000000000E-002    0.000000000000000E+000
 -3.780000000000000E-002    0.000000000000000E+000
 -3.770000000000000E-002    0.000000000000000E+000
 -3.760000000000000E-002    0.000000000000000E+000
 -3.750000000000000E-002    0.000000000000000E+000
 -3.740000000000000E-002    0.000000000000000E+000
 -3.730000000000000E-002    0.000000000000000E+000
 -3.720000000000000E-002    0.000000000000000E+000
 -3.710000000000000E-002    0.000000000000000E+000
 -3.700000000000000E-002    0.000000000000000E+000
 -3.690000000000000E-002    0.000000000000000E+000
 -3.680000000000000E-002    0.000000000000000E+000
 -3.670000000000000E-002    0.000000000000000E+000
 -3.660000000000000E-002    0.000000000000000E+000
 -3.650000000000000E-002    0.000000000000000E+000
 -3.640000000000000E-002    0.000000000000000E+000
 -3.630000000000000E-002    0.000000000000000E+000
 -3.620000000000000E-002    0.000000000000000E+000
 -3.610000000000000E-002    0.000000000000000E+000
 -3.600000000000000E-002    0.000000000000000E+000
 -3.590000000000000E-002    0.000000000000000E+000
 -3.580000000000000E-002    0.000000000000000E+000
 -3.570000000000000E-002    0.000000000000000E+000
 -3.560000000000000E-002    0.000000000000000E+000
 -3.550000000000000E-002    0.000000000000000E+000
 -3.540000000000000E-002    0.000000000000000E+000
 -3.530000000000000E-002    0.000000000000000E+000
 -3.520000000000000E-002    0.000000000000000E+000
 -3.510000000000000E-002    0.000000000000000E+000
 -3.500000000000000E-002    0.000000000000000E+000
 -3.490000000000000E-002    0.000000000000000E+000
 -3.480000000000000E-002    0.000000000000000E+000
 -3.470000000000000E-002    0.000000000000000E+000
 -3.460000000000000E-002    0.000000000000000E+000
 -3.450000000000000E-002    0.000000000000000E+000
 -3.440000000000000E-002    0.000000000000000E+000
 -3.430000000000000E-002    0.000000000000000E+000
 -3.420000000000000E-002    0.000000000000000E+000
 -3.410000000000000E-002    0.000000000000000E+000
 -3.400000000000000E-002    0.000000000000000E+000
 -3.390000000000000E-002    0.000000000000000E+000
 -3.380000000000000E-002    0.000000000000000E+000
 -3.370000000000000E-002    0.000000000000000E+000
 -3.360000000000000E-002    0.000000000000000E+000
 -3.350000000000000E-002    0.000000000000000E+000
 -3.340000000000000E-002    0.000000000000000E+000
 -3.330000000000000E-002    0.000000000000000E+000
 -3.320000000000000E-002    0.000000000000000E+000
 -3.310000000000000E-002    0.000000000000000E+000
 -3.300000000000000E-002    0.000000000000000E+000
 -3.290000000000000E-002    0.000000000000000E+000
 -3.280000000000000E-002    0.000000000000000E+000
 -3.270000000000000E-002    0.000000000000000E+000
 -3.260000000000000E-002    0.000000000000000E+000
 -3.250000000000000E-002    0.000000000000000E+000
 -3.240000000000000E-002    0.000000000000000E+000
 -3.230000000000000E-002    0.000000000000000E+000
 -3.220000000000000E-002    0.000000000000000E+000
 -3.210000000000000E-002    0.000000000000000E+000
 -3.200000000000000E-002    0.000000000000000E+000
 -3.190000000000000E-002    0.000000000000000E+000
 -3.180000000000000E-002    0.000000000000000E+000
 -3.170000000000000E-002    0.000000000000000E+000
 -3.160000000000000E-002    0.000000000000000E+000
 -3.150000000000000E-002    0.000000000000000E+000
 -3.140000000000000E-002    0.000000000000000E+000
 -3.130000000000000E-002    0.000000000000000E+000
 -3.120000000000000E-002    0.000000000000000E+000
 -3.110000000000000E-002    0.000000000000000E+000
 -3.100000000000000E-002    0.000000000000000E+000
 -3.090000000000000E-002    0.000000000000000E+000
 -3.080000000000000E-002    0.000000000000000E+000
 -3.070000000000000E-002    0.000000000000000E+000
 -3.060000000000000E-002    0.000000000000000E+000
 -3.050000000000000E-002    0.000000000000000E+000
 -3.040000000000000E-002    0.000000000000000E+000
 -3.030000000000000E-002    0.000000000000000E+000
 -3.020000000000000E-002    0.000000000000000E+000
 -3.010000000000000E-002    0.000000000000000E+000
 -3.000000000000000E-002    0.000000000000000E+000
 -2.990000000000000E-002    0.000000000000000E+000
 -2.980000000000000E-002    0.000000000000000E+000
 -2.970000000000000E-002    0.000000000000000E+000
 -2.960000000000000E-002    0.000000000000000E+000
 -2.950000000000000E-002    0.000000000000000E+000
 -2.940000000000000E-002    0.000000000000000E+000
 -2.930000000000000E-002    0.000000000000000E+000
 -2.920000000000000E-002    0.000000000000000E+000
 -2.910000000000000E-002    0.000000000000000E+000
 -2.900000000000000E-002    0.000000000000000E+000
 -2.890000000000000E-002    0.000000000000000E+000
 -2.880000000000000E-002    0.000000000000000E+000
 -2.870000000000000E-002    0.000000000000000E+000
 -2.860000000000000E-002    0.000000000000000E+000
 -2.850000000000000E-002    0.000000000000000E+000
 -2.840000000000000E-002    0.000000000000000E+000
 -2.830000000000000E-002    0.000000000000000E+000
 -2.820000000000000E-002    0.000000000000000E+000
 -2.810000000000000E-002    0.000000000000000E+000
 -2.800000000000000E-002    0.000000000000000E+000
 -2.790000000000000E-002    0.000000000000000E+000
 -2.780000000000000E-002    0.000000000000000E+000
 -2.770000000000000E-002    0.000000000000000E+000
 -2.760000000000000E-002    0.000000000000000E+000
 -2.750000000000000E-002    0.000000000000000E+000
 -2.740000000000000E-002    0.000000000000000E+000
 -2.730000000000000E-002    0.000000000000000E+000
 -2.720000000000000E-002    0.000000000000000E+000
 -2.710000000000000E-002    0.000000000000000E+000
 -2.700000000000000E-002    0.000000000000000E+000
 -2.690000000000000E-002    0.000000000000000E+000
 -2.680000000000000E-002    0.000000000000000E+000
 -2.670000000000000E-002    0.000000000000000E+000
 -2.660000000000000E-002    0.000000000000000E+000
 -2.650000000000000E-002    0.000000000000000E+000
 -2.640000000000000E-002    0.000000000000000E+000
 -2.630000000000000E-002    0.000000000000000E+000
 -2.620000000000000E-002    0.000000000000000E+000
 -2.610000000000000E-002    0.000000000000000E+000
 -2.600000000000000E-002    0.000000000000000E+000
 -2.590000000000000E-002    0.000000000000000E+000
 -2.580000000000000E-002    0.000000000000000E+000
 -2.570000000000000E-002    0.000000000000000E+000
 -2.560000000000000E-002    0.000000000000000E+000
 -2.550000000000000E-002    0.000000000000000E+000
 -2.540000000000000E-002    0.000000000000000E+000
 -2.530000000000000E-002    0.000000000000000E+000
 -2.520000000000000E-002    0.000000000000000E+000
 -2.510000000000000E-002    0.000000000000000E+000
 -2.500000000000000E-002    0.000000000000000E+000
 -2.490000000000000E-002    0.000000000000000E+000
 -2.480000000000000E-002    0.000000000000000E+000
 -2.470000000000000E-002    0.000000000000000E+000
 -2.460000000000000E-002    0.000000000000000E+000
 -2.450000000000000E-002    0.000000000000000E+000
 -2.440000000000000E-002    0.000000000000000E+000
 -2.430000000000000E-002    0.000000000000000E+000
 -2.420000000000000E-002    0.000000000000000E+000
 -2.410000000000000E-002    0.000000000000000E+000
 -2.400000000000000E-002    0.000000000000000E+000
 -2.390000000000000E-002    0.000000000000000E+000
 -2.380000000000000E-002    0.000000000000000E+000
 -2.370000000000000E-002    0.000000000000000E+000
 -2.360000000000000E-002    0.000000000000000E+000
 -2.350000000000000E-002    0.000000000000000E+000
 -2.340000000000000E-002    0.000000000000000E+000
 -2.330000000000000E-002    0.000000000000000E+000
 -2.320000000000000E-002    0.000000000000000E+000
 -2.310000000000000E-002    0.000000000000000E+000
 -2.300000000000000E-002    0.000000000000000E+000
 -2.290000000000000E-002    0.000000000000000E+000
 -2.280000000000000E-002    0.000000000000000E+000
 -2.270000000000000E-002    0.000000000000000E+000
 -2.260000000000000E-002    0.000000000000000E+000
 -2.250000000000000E-002    0.000000000000000E+000
 -2.240000000000000E-002    0.000000000000000E+000
 -2.230000000000000E-002    0.000000000000000E+000
 -2.220000000000000E-002    0.000000000000000E+000
 -2.210000000000000E-002    0.000000000000000E+000
 -2.200000000000000E-002    0.000000000000000E+000
 -2.190000000000000E-002    0.000000000000000E+000
 -2.180000000000000E-002    0.000000000000000E+000
 -2.170000000000000E-002    0.000000000000000E+000
 -2.160000000000000E-002    0.000000000000000E+000
 -2.150000000000000E-002    0.000000000000000E+000
 -2.140000000000000E-002    0.000000000000000E+000
 -2.130000000000000E-002    0.000000000000000E+000
 -2.120000000000000E-002    0.000000000000000E+000
 -2.110000000000000E-002    0.000000000000000E+000
 -2.100000000000000E-002    0.000000000000000E+000
 -2.090000000000000E-002    0.000000000000000E+000
 -2.080000000000000E-002    0.000000000000000E+000
 -2.070000000000000E-002    0.000000000000000E+000
 -2.060000000000000E-002    0.000000000000000E+000
 -2.050000000000000E-002    0.000000000000000E+000
 -2.040000000000000E-002    0.000000000000000E+000
 -2.030000000000000E-002    0.000000000000000E+000
 -2.020000000000000E-002    0.000000000000000E+000
 -2.010000000000000E-002    0.000000000000000E+000
 -2.000000000000000E-002    0.000000000000000E+000
 -1.990000000000000E-002    0.000000000000000E+000
 -1.980000000000000E-002    0.000000000000000E+000
 -1.970000000000000E-002    0.000000000000000E+000
 -1.960000000000000E-002    0.000000000000000E+000
 -1.950000000000000E-002    0.000000000000000E+000
 -1.940000000000000E-002    0.000000000000000E+000
 -1.930000000000000E-002    0.000000000000000E+000
 -1.920000000000000E-002    0.000000000000000E+000
 -1.910000000000000E-002    0.000000000000000E+000
 -1.900000000000000E-002    0.000000000000000E+000
 -1.890000000000000E-002    0.000000000000000E+000
 -1.880000000000000E-002    0.000000000000000E+000
 -1.870000000000000E-002    0.000000000000000E+000
 -1.860000000000000E-002    0.000000000000000E+000
 -1.850000000000000E-002    0.000000000000000E+000
 -1.840000000000000E-002    0.000000000000000E+000
 -1.830000000000000E-002    0.000000000000000E+000
 -1.820000000000000E-002    0.000000000000000E+000
 -1.810000000000000E-002    0.000000000000000E+000
 -1.800000000000000E-002    0.000000000000000E+000
 -1.790000000000000E-002    0.000000000000000E+000
 -1.780000000000000E-002    0.000000000000000E+000
 -1.770000000000000E-002    0.000000000000000E+000
 -1.760000000000000E-002    0.000000000000000E+000
 -1.750000000000000E-002    0.000000000000000E+000
 -1.740000000000000E-002    0.000000000000000E+000
 -1.730000000000000E-002    0.000000000000000E+000
 -1.720000000000000E-002    0.000000000000000E+000
 -1.710000000000000E-002    0.000000000000000E+000
 -1.700000000000000E-002    0.000000000000000E+000
 -1.690000000000000E-002    0.000000000000000E+000
 -1.680000000000000E-002    0.000000000000000E+000
 -1.670000000000000E-002    0.000000000000000E+000
 -1.660000000000000E-002    0.000000000000000E+000
 -1.650000000000000E-002    0.000000000000000E+000
 -1.640000000000000E-002    0.000000000000000E+000
 -1.630000000000000E-002    0.000000000000000E+000
 -1.620000000000000E-002    0.000000000000000E+000
 -1.610000000000000E-002    0.000000000000000E+000
 -1.600000000000000E-002    0.000000000000000E+000
 -1.590000000000000E-002    0.000000000000000E+000
 -1.580000000000000E-002    0.000000000000000E+000
 -1.570000000000000E-002    0.000000000000000E+000
 -1.560000000000000E-002    0.000000000000000E+000
 -1.550000000000000E-002    0.000000000000000E+000
 -1.540000000000000E-002    0.000000000000000E+000
 -1.530000000000000E-002    0.000000000000000E+000
 -1.520000000000000E-002    0.000000000000000E+000
 -1.510000000000000E-002    0.000000000000000E+000
 -1.500000000000000E-002    0.000000000000000E+000
 -1.490000000000000E-002    0.000000000000000E+000
 -1.480000000000000E-002    0.000000000000000E+000
 -1.470000000000000E-002    0.000000000000000E+000
 -1.460000000000000E-002    0.000000000000000E+000
 -1.450000000000000E-002    0.000000000000000E+000
 -1.440000000000000E-002    0.000000000000000E+000
 -1.430000000000000E-002    0.000000000000000E+000
 -1.420000000000000E-002    0.000000000000000E+000
 -1.410000000000000E-002    0.000000000000000E+000
 -1.400000000000000E-002    0.000000000000000E+000
 -1.390000000000000E-002    0.000000000000000E+000
 -1.380000000000000E-002    0.000000000000000E+000
 -1.370000000000000E-002    0.000000000000000E+000
 -1.360000000000000E-002    0.000000000000000E+000
 -1.350000000000000E-002    0.000000000000000E+000
 -1.340000000000000E-002    0.000000000000000E+000
 -1.330000000000000E-002    0.000000000000000E+000
 -1.320000000000000E-002    0.000000000000000E+000
 -1.310000000000000E-002    0.000000000000000E+000
 -1.300000000000000E-002    0.000000000000000E+000
 -1.290000000000000E-002    0.000000000000000E+000
 -1.280000000000000E-002    0.000000000000000E+000
 -1.270000000000000E-002    0.000000000000000E+000
 -1.260000000000000E-002    0.000000000000000E+000
 -1.250000000000000E-002    0.000000000000000E+000
 -1.240000000000000E-002    0.000000000000000E+000
 -1.230000000000000E-002    0.000000000000000E+000
 -1.220000000000000E-002    0.000000000000000E+000
 -1.210000000000000E-002    0.000000000000000E+000
 -1.200000000000000E-002    0.000000000000000E+000
 -1.190000000000000E-002    0.000000000000000E+000
 -1.180000000000000E-002    0.000000000000000E+000
 -1.170000000000000E-002    0.000000000000000E+000
 -1.160000000000000E-002    0.000000000000000E+000
 -1.150000000000000E-002    0.000000000000000E+000
 -1.140000000000000E-002    0.000000000000000E+000
 -1.130000000000000E-002    0.000000000000000E+000
 -1.120000000000000E-002    0.000000000000000E+000
 -1.110000000000000E-002    0.000000000000000E+000
 -1.100000000000000E-002    0.000000000000000E+000
 -1.090000000000000E-002    0.000000000000000E+000
 -1.080000000000000E-002    0.000000000000000E+000
 -1.070000000000000E-002    0.000000000000000E+000
 -1.060000000000000E-002    0.000000000000000E+000
 -1.050000000000000E-002    0.000000000000000E+000
 -1.040000000000000E-002    0.000000000000000E+000
 -1.030000000000000E-002    0.000000000000000E+000
 -1.020000000000000E-002    0.000000000000000E+000
 -1.010000000000000E-002    0.000000000000000E+000
 -1.000000000000000E-002    0.000000000000000E+000
 -9.899999999999999E-003    0.000000000000000E+000
 -9.800000000000000E-003    0.000000000000000E+000
 -9.699999999999999E-003    0.000000000000000E+000
 -9.599999999999999E-003    0.000000000000000E+000
 -9.500000000000000E-003    0.000000000000000E+000
 -9.399999999999999E-003    0.000000000000000E+000
 -9.299999999999999E-003    0.000000000000000E+000
 -9.200000000000000E-003    0.000000000000000E+000
 -9.099999999999999E-003    0.000000000000000E+000
 -8.999999999999999E-003    0.000000000000000E+000
 -8.900000000000000E-003    0.000000000000000E+000
 -8.799999999999999E-003    0.000000000000000E+000
 -8.699999999999999E-003    0.000000000000000E+000
 -8.600000000000000E-003    0.000000000000000E+000
 -8.499999999999999E-003    0.000000000000000E+000
 -8.399999999999999E-003    0.000000000000000E+000
 -8.300000000000000E-003    0.000000000000000E+000
 -8.199999999999999E-003    0.000000000000000E+000
 -8.100000000000000E-003    0.000000000000000E+000
 -8.000000000000000E-003    0.000000000000000E+000
 -7.899999999999999E-003    0.000000000000000E+000
 -7.800000000000000E-003    0.000000000000000E+000
 -7.699999999999999E-003    0.000000000000000E+000
 -7.599999999999999E-003    0.000000000000000E+000
 -7.499999999999999E-003    0.000000000000000E+000
 -7.399999999999999E-003    0.000000000000000E+000
 -7.299999999999999E-003    0.000000000000000E+000
 -7.199999999999999E-003    0.000000000000000E+000
 -7.100000000000000E-003    0.000000000000000E+000
 -6.999999999999999E-003    0.000000000000000E+000
 -6.899999999999999E-003    0.000000000000000E+000
 -6.800000000000000E-003    0.000000000000000E+000
 -6.699999999999999E-003    0.000000000000000E+000
 -6.599999999999999E-003    0.000000000000000E+000
 -6.499999999999999E-003    0.000000000000000E+000
 -6.399999999999999E-003    0.000000000000000E+000
 -6.299999999999999E-003    0.000000000000000E+000
 -6.199999999999999E-003    0.000000000000000E+000
 -6.100000000000000E-003    0.000000000000000E+000
 -5.999999999999999E-003    0.000000000000000E+000
 -5.899999999999999E-003    0.000000000000000E+000
 -5.800000000000000E-003    0.000000000000000E+000
 -5.699999999999999E-003    0.000000000000000E+000
 -5.599999999999999E-003    0.000000000000000E+000
 -5.499999999999999E-003    0.000000000000000E+000
 -5.399999999999999E-003    0.000000000000000E+000
 -5.299999999999999E-003    0.000000000000000E+000
 -5.199999999999999E-003    0.000000000000000E+000
 -5.099999999999999E-003    0.000000000000000E+000
 -4.999999999999999E-003    0.000000000000000E+000
 -4.899999999999999E-003    0.000000000000000E+000
 -4.799999999999999E-003    0.000000000000000E+000
 -4.699999999999999E-003    0.000000000000000E+000
 -4.599999999999999E-003    0.000000000000000E+000
 -4.499999999999999E-003    0.000000000000000E+000
 -4.399999999999999E-003    0.000000000000000E+000
 -4.299999999999999E-003    0.000000000000000E+000
 -4.199999999999999E-003    0.000000000000000E+000
 -4.099999999999999E-003    0.000000000000000E+000
 -3.999999999999999E-003    0.000000000000000E+000
 -3.899999999999999E-003    0.000000000000000E+000
 -3.799999999999999E-003    0.000000000000000E+000
 -3.699999999999999E-003    0.000000000000000E+000
 -3.599999999999999E-003    0.000000000000000E+000
 -3.499999999999999E-003    0.000000000000000E+000
 -3.399999999999999E-003    0.000000000000000E+000
 -3.299999999999999E-003    0.000000000000000E+000
 -3.199999999999999E-003    0.000000000000000E+000
 -3.099999999999999E-003    0.000000000000000E+000
 -2.999999999999999E-003    0.000000000000000E+000
 -2.899999999999999E-003    0.000000000000000E+000
 -2.799999999999999E-003    0.000000000000000E+000
 -2.699999999999999E-003    0.000000000000000E+000
 -2.599999999999999E-003    2.138211768073757E-048
 -2.499999999999999E-003    5.266674704606087E-047
 -2.399999999999999E-003    7.319358001956893E-047
 -2.299999999999999E-003    9.372041299307699E-047
 -2.199999999999999E-003    1.056943988942900E-046
 -2.099999999999999E-003    8.424554366210601E-047
 -1.999999999999999E-003    6.707311196606950E-047
 -1.899999999999999E-003    1.433962736856218E-047
 -1.799999999999999E-003   -3.306193633122876E-047
 -1.699999999999999E-003   -1.168382341305624E-046
 -1.599999999999999E-003   -3.420306707787033E-046
 -1.499999999999999E-003   -5.641628734000944E-046
 -1.399999999999999E-003   -5.945778315939666E-046
 -1.299999999999999E-003   -6.489156275479761E-046
 -1.199999999999999E-003   -6.108826751211992E-046
 -1.099999999999999E-003   -4.362187737510455E-046
 -9.999999999999989E-004   -2.261114286563243E-047
 -8.999999999999990E-004    3.436077549007041E-046
 -7.999999999999990E-004    1.171559744954011E-045
 -6.999999999999989E-004    1.987295927847825E-045
 -5.999999999999990E-004    2.502165768422964E-045
 -4.999999999999989E-004    2.886070795828815E-045
 -3.999999999999989E-004    3.130003303594532E-045
 -2.999999999999989E-004    3.548196971064099E-045
 -1.999999999999989E-004    3.576812108561129E-045
 -9.999999999999892E-005    3.719644436597826E-045
  1.084202172485504E-018    2.237282431996860E-045
  1.000000000000011E-004    2.367249635665098E-046
  2.000000000000011E-004   -2.301420263292144E-045
  3.000000000000011E-004   -5.189726814151951E-045
  4.000000000000011E-004   -9.588409123956965E-045
  5.000000000000011E-004   -1.417298344181457E-044
  6.000000000000011E-004   -1.868344634377835E-044
  7.000000000000011E-004   -2.215686923184294E-044
  8.000000000000011E-004   -2.360927508317427E-044
  9.000000000000012E-004   -2.395136082338180E-044
  1.000000000000001E-003   -2.042767494020239E-044
  1.100000000000001E-003   -1.159653296754803E-044
  1.200000000000001E-003    2.483965105248509E-045
  1.300000000000001E-003    2.184163148715904E-044
  1.400000000000001E-003    4.642927034624062E-044
  1.500000000000001E-003    7.440559195684380E-044
  1.600000000000001E-003    1.033024412747548E-043
  1.700000000000001E-003    1.294072494294527E-043
  1.800000000000001E-003    1.482679767143669E-043
  1.900000000000001E-003    1.547605013510604E-043
  2.000000000000001E-003    1.437746750634194E-043
  2.100000000000001E-003    1.079375414465233E-043
  2.200000000000001E-003    4.466113571457344E-044
  2.300000000000001E-003   -5.040394605352386E-044
  2.400000000000001E-003   -1.755886648124385E-043
  2.500000000000001E-003   -3.254955236986437E-043
  2.600000000000001E-003   -4.892702676769266E-043
  2.700000000000001E-003   -6.509862523345837E-043
  2.800000000000001E-003   -7.880055982445882E-043
  2.900000000000001E-003   -8.713698070209292E-043
  3.000000000000001E-003   -8.704135913882288E-043
  3.100000000000001E-003   -7.527697023210481E-043
  3.200000000000001E-003   -4.896854474868987E-043
  3.300000000000001E-003   -6.188520408828091E-044
  3.400000000000001E-003    5.354455137928493E-043
  3.500000000000001E-003    1.284697648193713E-042
  3.600000000000001E-003    2.144062817007980E-042
  3.700000000000001E-003    3.040454501636992E-042
  3.800000000000001E-003    3.867272555741780E-042
  3.900000000000001E-003    4.491003580762743E-042
  4.000000000000001E-003    4.752481364332930E-042
  4.100000000000001E-003    4.485131768922451E-042
  4.200000000000001E-003    3.532531596081410E-042
  4.300000000000001E-003    1.772192681266938E-042
  4.400000000000001E-003   -8.553331969777790E-043
  4.500000000000001E-003   -4.316463566736762E-042
  4.600000000000002E-003   -8.455745773828902E-042
  4.700000000000001E-003   -1.297297124609215E-041
  4.800000000000001E-003   -1.741018054426839E-041
  4.900000000000002E-003   -2.116049924108113E-041
  5.000000000000001E-003   -2.349389157043703E-041
  5.100000000000001E-003   -2.361200826936981E-041
  5.200000000000001E-003   -2.072772885644452E-041
  5.300000000000002E-003   -1.417533531229616E-041
  5.400000000000001E-003   -3.536982941788037E-042
  5.500000000000001E-003    1.121566250771625E-041
  5.600000000000002E-003    2.958527439539037E-041
  5.700000000000001E-003    5.043386062425722E-041
  5.800000000000001E-003    7.192069789585726E-041
  5.900000000000002E-003    9.150102452539784E-041
  6.000000000000001E-003    1.060236036622556E-040
  6.100000000000001E-003    1.119390512934209E-040
  6.200000000000002E-003    1.056318662519337E-040
  6.300000000000002E-003    8.386452842462564E-041
  6.400000000000001E-003    4.432200233623285E-041
  6.500000000000001E-003   -1.378495226501400E-041
  6.600000000000002E-003   -8.912606565722830E-041
  6.700000000000001E-003   -1.777327728074868E-040
  6.800000000000001E-003   -2.726636860938928E-040
  6.900000000000002E-003   -3.639431867500269E-040
  7.000000000000001E-003   -4.388785415121588E-040
  7.100000000000001E-003   -4.828232265780961E-040
  7.200000000000002E-003   -4.804429568945668E-040
  7.300000000000002E-003   -4.174598670387033E-040
  7.400000000000001E-003   -2.828074475171532E-040
  7.500000000000001E-003   -7.104657758367599E-041
  7.600000000000002E-003    2.152028433640145E-040
  7.700000000000001E-003    5.631152316119820E-040
  7.800000000000001E-003    9.481673491135734E-040
  7.900000000000001E-003    1.333686475527028E-039
  8.000000000000002E-003    1.671830453289877E-039
  8.100000000000001E-003    1.906285394390280E-039
  8.200000000000001E-003    1.976857096818307E-039
  8.300000000000002E-003    1.825928842938195E-039
  8.400000000000001E-003    1.406508739366904E-039
  8.500000000000002E-003    6.912929046746183E-040
  8.600000000000002E-003   -3.181162274297790E-040
  8.700000000000001E-003   -1.582987115494670E-039
  8.800000000000002E-003   -3.021561185048135E-039
  8.900000000000002E-003   -4.506935526409987E-039
  9.000000000000001E-003   -5.870060582457016E-039
  9.100000000000002E-003   -6.908948634467171E-039
  9.200000000000002E-003   -7.404677141516544E-039
  9.300000000000001E-003   -7.144046611373040E-039
  9.400000000000002E-003   -5.947875976843142E-039
  9.500000000000001E-003   -3.702871430105089E-039
  9.600000000000001E-003   -3.940054088278450E-040
  9.700000000000002E-003    3.866633170308221E-039
  9.800000000000001E-003    8.819149688256255E-039
  9.900000000000001E-003    1.404820736353018E-038
  1.000000000000000E-002    1.899298678534700E-038
  1.010000000000000E-002    2.297816983719389E-038
  1.020000000000000E-002    2.526767920222446E-038
  1.030000000000000E-002    2.514032047372644E-038
  1.040000000000000E-002    2.198348762449865E-038
  1.050000000000000E-002    1.539767283815261E-038
  1.060000000000000E-002    5.301184805075005E-039
  1.070000000000000E-002   -7.978213990200842E-039
  1.080000000000000E-002   -2.363996576623044E-038
  1.090000000000000E-002   -4.039104723377327E-038
  1.100000000000000E-002   -5.648361451356296E-038
  1.110000000000000E-002   -6.981969572416124E-038
  1.120000000000000E-002   -7.812634710023226E-038
  1.130000000000000E-002   -7.919635352119132E-038
  1.140000000000000E-002   -7.117966519895248E-038
  1.150000000000000E-002   -5.290052041969149E-038
  1.160000000000000E-002   -2.416545253755715E-038
  1.170000000000000E-002    1.398008414157194E-038
  1.180000000000000E-002    5.909218743308496E-038
  1.190000000000000E-002    1.073104086940874E-037
  1.200000000000000E-002    1.535173796693770E-037
  1.210000000000000E-002    1.916977688472211E-037
  1.220000000000000E-002    2.154963416388012E-037
  1.230000000000000E-002    2.189489731480012E-037
  1.240000000000000E-002    1.973303086375300E-037
  1.250000000000000E-002    1.480323617682636E-037
  1.260000000000000E-002    7.136422019016366E-038
  1.270000000000000E-002   -2.885286663674469E-038
  1.280000000000000E-002   -1.450228443883674E-037
  1.290000000000000E-002   -2.659569991861999E-037
  1.300000000000000E-002   -3.775793149810768E-037
  1.310000000000000E-002   -4.641781496718256E-037
  1.320000000000000E-002   -5.101587035364799E-037
  1.330000000000000E-002   -5.021676198583118E-037
  1.340000000000000E-002   -4.313789548973581E-037
  1.350000000000000E-002   -2.956561823841585E-037
  1.360000000000000E-002   -1.012562023644201E-037
  1.370000000000000E-002    1.362793542688465E-037
  1.380000000000000E-002    3.923616066416520E-037
  1.390000000000000E-002    6.349592225369773E-037
  1.400000000000000E-002    8.276592436089143E-037
  1.410000000000000E-002    9.340887164185591E-037
  1.420000000000000E-002    9.233711606729982E-037
  1.430000000000000E-002    7.760563773365997E-037
  1.440000000000000E-002    4.897542766514681E-037
  1.450000000000000E-002    8.353421025386793E-038
  1.460000000000000E-002   -3.998903282573172E-037
  1.470000000000000E-002   -8.951092151976785E-037
  1.480000000000000E-002   -1.318776424496742E-036
  1.490000000000000E-002   -1.578465979487986E-036
  1.500000000000000E-002   -1.585367586224662E-036
  1.510000000000000E-002   -1.269900107923662E-036
  1.520000000000000E-002   -5.986205530135677E-037
  1.530000000000000E-002    4.098251574240279E-037
  1.540000000000000E-002    1.672484597035670E-036
  1.550000000000000E-002    3.036569789185749E-036
  1.560000000000000E-002    4.283411058164884E-036
  1.570000000000000E-002    5.144051557248154E-036
  1.580000000000000E-002    5.327479658423269E-036
  1.590000000000000E-002    4.560875745482163E-036
  1.600000000000000E-002    2.639264435377471E-036
  1.610000000000000E-002   -5.202253452564152E-037
  1.620000000000000E-002   -4.826373816330012E-036
  1.630000000000000E-002   -9.972670964687781E-036
  1.640000000000000E-002   -1.541637945688825E-035
  1.650000000000000E-002   -2.038699056244312E-035
  1.660000000000000E-002   -2.393161939702377E-035
  1.670000000000000E-002   -2.500161502953128E-035
  1.680000000000000E-002   -2.257985679845799E-035
  1.690000000000000E-002   -1.584221372690596E-035
  1.700000000000000E-002   -4.339690397404191E-036
  1.710000000000000E-002    1.181901140565683E-035
  1.720000000000000E-002    3.181071775886097E-035
  1.730000000000000E-002    5.399681834477998E-035
  1.740000000000000E-002    7.590878062308865E-035
  1.750000000000000E-002    9.434725619187313E-035
  1.760000000000000E-002    1.056136212841236E-034
  1.770000000000000E-002    1.058794345179228E-034
  1.780000000000000E-002    9.168151528536511E-035
  1.790000000000000E-002    6.050950617030927E-035
  1.800000000000000E-002    1.143063804071301E-035
  1.810000000000000E-002   -5.432399854687490E-035
  1.820000000000000E-002   -1.329026950169324E-034
  1.830000000000000E-002   -2.176043835332046E-034
  1.840000000000000E-002   -2.989719179633565E-034
  1.850000000000000E-002   -3.652824397565537E-034
  1.860000000000000E-002   -4.034775561906853E-034
  1.870000000000000E-002   -4.005261459909560E-034