 -4.000000000000000E-002    0.000000000000000E+000
 -3.990000000000000E-002    0.000000000000000E+000
 -3.980000000000000E-002    0.000000000000000E+000
 -3.970000000000000E-002    0.000000000000000E+000
 -3.960000000000000E-002    0.000000000000000E+000
 -3.950000000000000E-002    0.000000000000000E+000
 -3.940000000000000E-002    0.000000000000000E+000
 -3.930000000000000E-002    0.000000000000000E+000
 -3.920000000000000E-002    0.000000000000000E+000
 -3.910000000000000E-002    0.000000000000000E+000
 -3.900000000000000E-002    1.109495806742208E-033
 -3.890000000000000E-002    2.153044712104752E-032
 -3.880000000000000E-002    2.168621521967791E-031
 -3.870000000000000E-002    1.507705884696374E-030
 -3.860000000000000E-002    8.118811618709908E-030
 -3.850000000000000E-002    3.602751332117351E-029
 -3.840000000000000E-002    1.368818384646305E-028
 -3.830000000000000E-002    4.567570259209300E-028
 -3.820000000000000E-002    1.362500822031304E-027
 -3.810000000000000E-002    3.678862238140516E-027
 -3.800000000000000E-002    9.068475403364416E-027
 -3.790000000000000E-002    2.051560766317118E-026
 -3.780000000000000E-002    4.267920561336259E-026
 -3.770000000000000E-002    8.147417065206941E-026
 -3.760000000000000E-002    1.415336894545624E-025
 -3.750000000000000E-002    2.191631036200731E-025
 -3.740000000000000E-002    2.871248476789495E-025
 -3.730000000000000E-002    2.664788142016916E-025
 -3.720000000000000E-002   -1.944234239098302E-026
 -3.710000000000000E-002   -9.116586307023819E-025
 -3.700000000000000E-002   -2.999078700052062E-024
 -3.690000000000000E-002   -7.202375070515652E-024
 -3.680000000000000E-002   -1.482037440651780E-023
 -3.670000000000000E-002   -2.747098153421524E-023
 -3.660000000000000E-002   -4.682199982670275E-023
 -3.650000000000000E-002   -7.397129400008575E-023
 -3.640000000000000E-002   -1.083144033956462E-022
 -3.630000000000000E-002   -1.457522901113923E-022
 -3.620000000000000E-002   -1.761709800903897E-022
 -3.610000000000000E-002   -1.802994967497804E-022
 -3.600000000000000E-002   -1.263511587127100E-022
 -3.590000000000000E-002    3.271362186178042E-023
 -3.580000000000000E-002    3.599150681168125E-022
 -3.570000000000000E-002    9.309875714009797E-022
 -3.560000000000000E-002    1.824621305128977E-021
 -3.550000000000000E-002    3.103488695085485E-021
 -3.540000000000000E-002    4.783668375013265E-021
 -3.530000000000000E-002    6.791274525368927E-021
 -3.520000000000000E-002    8.907460747712632E-021
 -3.510000000000000E-002    1.070666169445933E-020
 -3.500000000000000E-002    1.149796145313448E-020
 -3.490000000000000E-002    1.028544961752591E-020
 -3.480000000000000E-002    5.769576745960581E-021
 -3.470000000000000E-002   -3.583516326625856E-021
 -3.460000000000000E-002   -1.937570935747282E-020
 -3.450000000000000E-002   -4.298782616660189E-020
 -3.440000000000000E-002   -7.515249621048019E-020
 -3.430000000000000E-002   -1.153934921016155E-019
 -3.420000000000000E-002   -1.613660112516267E-019
 -3.410000000000000E-002   -2.081716810740643E-019
 -3.400000000000000E-002   -2.477672984020046E-019
 -3.390000000000000E-002   -2.686322474362794E-019
 -3.380000000000000E-002   -2.558958738313077E-019
 -3.370000000000000E-002   -1.921429142397552E-019
 -3.360000000000000E-002   -5.909805327555321E-020
 -3.350000000000000E-002    1.596719324640513E-019
 -3.340000000000000E-002    4.750178272282472E-019
 -3.330000000000000E-002    8.875852190625939E-019
 -3.320000000000000E-002    1.382693226580519E-018
 -3.310000000000000E-002    1.925361406406089E-018
 -3.300000000000000E-002    2.456391556106387E-018
 -3.290000000000000E-002    2.890631440792991E-018
 -3.280000000000000E-002    3.118657654197376E-018
 -3.270000000000000E-002    3.013066742415772E-018
 -3.260000000000000E-002    2.440287917665295E-018
 -3.250000000000000E-002    1.278299119966019E-018
 -3.240000000000000E-002   -5.601868646265542E-019
 -3.230000000000000E-002   -3.100547336392977E-018
 -3.220000000000000E-002   -6.277777330541390E-018
 -3.210000000000000E-002   -9.910642451851781E-018
 -3.200000000000000E-002   -1.368342349497352E-017
 -3.190000000000000E-002   -1.714085314558197E-017
 -3.180000000000000E-002   -1.970182639151335E-017
 -3.170000000000000E-002   -2.069655653038852E-017
 -3.160000000000000E-002   -1.942987533424030E-017
 -3.150000000000000E-002   -1.527037183331505E-017
 -3.140000000000000E-002   -7.761017062685909E-018
 -3.130000000000000E-002    3.257719758908771E-018
 -3.120000000000000E-002    1.752609336969373E-017
 -3.110000000000000E-002    3.426276341570886E-017
 -3.100000000000000E-002    5.210292366177191E-017
 -3.090000000000000E-002    6.909864170348150E-017
 -3.080000000000000E-002    8.280074335963521E-017
 -3.070000000000000E-002    9.043579235694480E-017
 -3.060000000000000E-002    8.918202752453840E-017
 -3.050000000000000E-002    7.653508547482660E-017
 -3.040000000000000E-002    5.073893197354093E-017
 -3.030000000000000E-002    1.124088902568066E-017
 -3.020000000000000E-002   -4.088530989083865E-017
 -3.010000000000000E-002   -1.026159272751827E-016
 -3.000000000000000E-002   -1.688255526296649E-016
 -2.990000000000000E-002   -2.323755146210311E-016
 -2.980000000000000E-002   -2.844961047471537E-016
 -2.970000000000000E-002   -3.154899289514876E-016
 -2.960000000000000E-002   -3.157470835222229E-016
 -2.950000000000000E-002   -2.770177532186166E-016
 -2.940000000000000E-002   -1.938384792044498E-016
 -2.930000000000000E-002   -6.496188581751143E-017
 -2.920000000000000E-002    1.053994941145100E-016
 -2.910000000000000E-002    3.067263214983735E-016
 -2.900000000000000E-002    5.219521439602257E-016
 -2.890000000000000E-002    7.280096643580262E-016
 -2.880000000000000E-002    8.972829382667796E-016
 -2.870000000000000E-002    9.999926239708511E-016
 -2.860000000000000E-002    1.007426686627470E-015
 -2.850000000000000E-002    8.957962304116477E-016
 -2.840000000000000E-002    6.503664436020734E-016
 -2.830000000000000E-002    2.693964002569330E-016
 -2.820000000000000E-002   -2.326569277920614E-016
 -2.810000000000000E-002   -8.232426529867714E-016
 -2.800000000000000E-002   -1.451654301701397E-015
 -2.790000000000000E-002   -2.051212599507077E-015
 -2.780000000000000E-002   -2.543904158289578E-015
 -2.770000000000000E-002   -2.847421903545296E-015
 -2.760000000000000E-002   -2.884241499954537E-015
 -2.750000000000000E-002   -2.592038858488599E-015
 -2.740000000000000E-002   -1.934444571450105E-015
 -2.730000000000000E-002   -9.108902883413837E-016
 -2.720000000000000E-002    4.358349360079107E-016
 -2.710000000000000E-002    2.015689200127908E-015
 -2.700000000000000E-002    3.692334115343051E-015
 -2.690000000000000E-002    5.289775700886721E-015
 -2.680000000000000E-002    6.604993364834499E-015
 -2.670000000000000E-002    7.426201644222377E-015
 -2.660000000000000E-002    7.555657208282367E-015
 -2.650000000000000E-002    6.835189507945542E-015
 -2.640000000000000E-002    5.171989750113001E-015
 -2.630000000000000E-002    2.561731556746748E-015
 -2.620000000000000E-002   -8.940971300767946E-016
 -2.610000000000000E-002   -4.979634273144869E-015
 -2.600000000000000E-002   -9.367337274978871E-015
 -2.590000000000000E-002   -1.363352727543447E-014
 -2.580000000000000E-002   -1.728721459547113E-014
 -2.570000000000000E-002   -1.981118313680458E-014
 -2.560000000000000E-002   -2.071282331440494E-014
 -2.550000000000000E-002   -1.958071262206675E-014
 -2.540000000000000E-002   -1.614174874771942E-014
 -2.530000000000000E-002   -1.031277290350320E-014
 -2.520000000000000E-002   -2.240430236926569E-015
 -2.510000000000000E-002    7.676707245451185E-015
 -2.500000000000000E-002    1.878856191711001E-014
 -2.490000000000000E-002    3.021962590498781E-014
 -2.480000000000000E-002    4.092154432990139E-014
 -2.470000000000000E-002    4.975032060071390E-014
 -2.460000000000000E-002    5.556361429763305E-014
 -2.450000000000000E-002    5.733083885777063E-014
 -2.440000000000000E-002    5.424672352843252E-014
 -2.430000000000000E-002    4.583756583552610E-014
 -2.420000000000000E-002    3.204887700751323E-014
 -2.410000000000000E-002    1.330376495455831E-014
 -2.400000000000000E-002   -9.476775409251276E-015
 -2.390000000000000E-002   -3.489776620809273E-014
 -2.380000000000000E-002   -6.116069117832383E-014
 -2.370000000000000E-002   -8.617867113590471E-014
 -2.360000000000000E-002   -1.077299745368195E-013
 -2.350000000000000E-002   -1.236394925717831E-013
 -2.340000000000000E-002   -1.319739592291434E-013
 -2.330000000000000E-002   -1.312345216900484E-013
 -2.320000000000000E-002   -1.205288300332955E-013
 -2.310000000000000E-002   -9.970548086612671E-014
 -2.300000000000000E-002   -6.943548654163248E-014
 -2.290000000000000E-002   -3.122894731993558E-014
 -2.280000000000000E-002    1.261979032821753E-014
 -2.270000000000000E-002    5.915982223504899E-014
 -2.260000000000000E-002    1.049790398023063E-013
 -2.250000000000000E-002    1.464560191405324E-013
 -2.240000000000000E-002    1.800512568573890E-013
 -2.230000000000000E-002    2.026162817975394E-013
 -2.220000000000000E-002    2.116959765607121E-013
 -2.210000000000000E-002    2.057975369462058E-013
 -2.200000000000000E-002    1.846008706322310E-013
 -2.190000000000000E-002    1.490868274569501E-013
 -2.180000000000000E-002    1.015655758742015E-013
 -2.170000000000000E-002    4.559183992982978E-014
 -2.160000000000000E-002   -1.423617555177456E-014
 -2.150000000000000E-002   -7.258992151999884E-014
 -2.140000000000000E-002   -1.238219623640817E-013
 -2.130000000000000E-002   -1.624511419203514E-013
 -2.120000000000000E-002   -1.836899218307526E-013
 -2.110000000000000E-002   -1.839737380498711E-013
 -2.100000000000000E-002   -1.614466778587158E-013
 -2.090000000000000E-002   -1.163566597599927E-013
 -2.080000000000000E-002   -5.131231164473668E-014
 -2.070000000000000E-002    2.863972639659865E-014
 -2.060000000000000E-002    1.161502384193483E-013
 -2.050000000000000E-002    2.019352073180364E-013
 -2.040000000000000E-002    2.753782924970385E-013
 -2.030000000000000E-002    3.253487176016789E-013
 -2.020000000000000E-002    3.411955153396810E-013
 -2.010000000000000E-002    3.138539242157248E-013
 -2.000000000000000E-002    2.369800687524188E-013
 -1.990000000000000E-002    1.080150455264842E-013
 -1.980000000000000E-002   -7.093467951218932E-014
 -1.970000000000000E-002   -2.925088771667151E-013
 -1.960000000000000E-002   -5.439011718509895E-013
 -1.950000000000000E-002   -8.071442541405276E-013
 -1.940000000000000E-002   -1.059920117176470E-012
 -1.930000000000000E-002   -1.276903703084756E-012
 -1.920000000000000E-002   -1.431596352109535E-012
 -1.910000000000000E-002   -1.498550833979407E-012
 -1.900000000000000E-002   -1.455839042256383E-012
 -1.890000000000000E-002   -1.287565990651377E-012
 -1.880000000000000E-002   -9.862016030712145E-013
 -1.870000000000000E-002   -5.544802406276067E-013
 -1.860000000000000E-002   -6.634810621196457E-015
 -1.850000000000000E-002    6.312487491103526E-013
 -1.840000000000000E-002    1.321904991263553E-012
 -1.830000000000000E-002    2.018668217385710E-012
 -1.820000000000000E-002    2.668329114202915E-012
 -1.810000000000000E-002    3.214941464664915E-012
 -1.800000000000000E-002    3.604337577457047E-012
 -1.790000000000000E-002    3.789017446296404E-012
 -1.780000000000000E-002    3.732997734284428E-012
 -1.770000000000000E-002    3.416161366554277E-012
 -1.760000000000000E-002    2.837650796666346E-012
 -1.750000000000000E-002    2.017876326514960E-012
 -1.740000000000000E-002    9.988167278831805E-013
 -1.730000000000000E-002   -1.576018793590588E-013
 -1.720000000000000E-002   -1.373082507479442E-012
 -1.710000000000000E-002   -2.558349175756436E-012
 -1.700000000000000E-002   -3.620023622660986E-012
 -1.690000000000000E-002   -4.468482365169678E-012
 -1.680000000000000E-002   -5.026048538787589E-012
 -1.670000000000000E-002   -5.234786555694251E-012
 -1.660000000000000E-002   -5.063140658640671E-012
 -1.650000000000000E-002   -4.510697425322677E-012
 -1.640000000000000E-002   -3.610483625698966E-012
 -1.630000000000000E-002   -2.428372839800090E-012
 -1.620000000000000E-002   -1.059454933816957E-012
 -1.610000000000000E-002    3.785611769016303E-013
 -1.600000000000000E-002    1.754497675222981E-012
 -1.590000000000000E-002    2.934771728363307E-012
 -1.580000000000000E-002    3.795495186128381E-012
 -1.570000000000000E-002    4.234564161898981E-012
 -1.560000000000000E-002    4.182657014093138E-012
 -1.550000000000000E-002    3.612038217884252E-012
 -1.540000000000000E-002    2.542256915179891E-012
 -1.530000000000000E-002    1.041980460335224E-012
 -1.520000000000000E-002   -7.734079589161011E-013
 -1.510000000000000E-002   -2.748555752970098E-012
 -1.500000000000000E-002   -4.698891424679010E-012
 -1.490000000000000E-002   -6.424703704235267E-012
 -1.480000000000000E-002   -7.727544927694666E-012
 -1.470000000000000E-002   -8.427699659768653E-012
 -1.460000000000000E-002   -8.381289531724708E-012
 -1.450000000000000E-002   -7.495605370322019E-012
 -1.440000000000000E-002   -5.741220174075120E-012
 -1.430000000000000E-002   -3.159755718212672E-012
 -1.420000000000000E-002    1.336217266756577E-013
 -1.410000000000000E-002    3.953486672514583E-012
 -1.400000000000000E-002    8.053314232235246E-012
 -1.390000000000000E-002    1.214015379686008E-011
 -1.380000000000000E-002    1.589404731140563E-011
 -1.370000000000000E-002    1.899099566246147E-011
 -1.360000000000000E-002    2.112795572683161E-011
 -1.350000000000000E-002    2.204817059048004E-011
 -1.340000000000000E-002    2.156491273703671E-011
 -1.330000000000000E-002    1.958182389956809E-011
 -1.320000000000000E-002    1.610801444215580E-011
 -1.310000000000000E-002    1.126649472649572E-011
 -1.300000000000000E-002    5.294639287530422E-012
 -1.290000000000000E-002   -1.463968502323570E-012
 -1.280000000000000E-002   -8.576535513467403E-012
 -1.270000000000000E-002   -1.554652245346554E-011
 -1.260000000000000E-002   -2.184651946732667E-011
 -1.250000000000000E-002   -2.695684770357831E-011
 -1.240000000000000E-002   -3.040752871655795E-011
 -1.230000000000000E-002   -3.182091803986232E-011
 -1.220000000000000E-002   -3.095162480227896E-011
 -1.210000000000000E-002   -2.772024364786813E-011
 -1.200000000000000E-002   -2.223752679098554E-011
 -1.190000000000000E-002   -1.481568509556412E-011
 -1.180000000000000E-002   -5.964270445307921E-012
 -1.170000000000000E-002    3.631116968475730E-012
 -1.160000000000000E-002    1.314778559018074E-011
 -1.150000000000000E-002    2.168167536023417E-011
 -1.140000000000000E-002    2.831741172929661E-011
 -1.130000000000000E-002    3.220847991116660E-011
 -1.120000000000000E-002    3.266183338883376E-011
 -1.110000000000000E-002    2.922015446534348E-011
 -1.100000000000000E-002    2.173391309623752E-011
 -1.090000000000000E-002    1.041537616419017E-011
 -1.080000000000000E-002   -4.133025541694098E-012
 -1.070000000000000E-002   -2.092197919335518E-011
 -1.060000000000000E-002   -3.861443298300479E-011
 -1.050000000000000E-002   -5.560190878943764E-011
 -1.040000000000000E-002   -7.011594305522508E-011
 -1.030000000000000E-002   -8.036903024232441E-011
 -1.020000000000000E-002   -8.471594798202641E-011
 -1.010000000000000E-002   -8.182292706770385E-011
 -1.000000000000000E-002   -7.082990552186407E-011
 -9.899999999999999E-003   -5.148966750552816E-011
 -9.800000000000000E-003   -2.426782940161675E-011
 -9.699999999999999E-003    9.610685772999669E-012
 -9.599999999999999E-003    4.817975582450591E-011
 -9.500000000000000E-003    8.882077833687098E-011
 -9.399999999999999E-003    1.284222057991056E-010
 -9.299999999999999E-003    1.636028766543578E-010
 -9.200000000000000E-003    1.909855834218431E-010
 -9.099999999999999E-003    2.075003538870379E-010
 -8.999999999999999E-003    2.106920887632910E-010
 -8.900000000000000E-003    1.990032392482638E-010
 -8.799999999999999E-003    1.720023433625757E-010
 -8.699999999999999E-003    1.305304708563958E-010
 -8.600000000000000E-003    7.674303083757785E-011
 -8.499999999999999E-003    1.403240169800590E-011
 -8.399999999999999E-003   -5.317352953401436E-011
 -8.300000000000000E-003   -1.197292341660637E-010
 -8.199999999999999E-003   -1.801861649588366E-010
 -8.100000000000000E-003   -2.292741371305737E-010
 -8.000000000000000E-003   -2.624070932942782E-010
 -7.899999999999999E-003   -2.761675798950999E-010
 -7.800000000000000E-003   -2.687189630506513E-010
 -7.699999999999999E-003   -2.400990532232306E-010
 -7.599999999999999E-003   -1.923546068980845E-010
 -7.499999999999999E-003   -1.294894112427361E-010
 -7.399999999999999E-003   -5.721422129460035E-011
 -7.299999999999999E-003    1.749456427417194E-011
 -7.199999999999999E-003    8.699932283417377E-011
 -7.100000000000000E-003    1.437232511779638E-010
 -6.999999999999999E-003    1.809272939772671E-010
 -6.899999999999999E-003    1.934679222802646E-010
 -6.800000000000000E-003    1.784580797110616E-010
 -6.699999999999999E-003    1.357545958983141E-010
 -6.599999999999999E-003    6.820764237628233E-011
 -6.499999999999999E-003   -1.837430430871871E-011
 -6.399999999999999E-003   -1.155661049740908E-010
 -6.299999999999999E-003   -2.129667277655524E-010
 -6.199999999999999E-003   -2.991001067908091E-010
 -6.100000000000000E-003   -3.625086125142460E-010
 -5.999999999999999E-003   -3.929434851143808E-010
 -5.899999999999999E-003   -3.825413923513574E-010
 -5.800000000000000E-003   -3.268646771596734E-010
 -5.699999999999999E-003   -2.256893527896483E-010
 -5.599999999999999E-003   -8.343691743419803E-011
 -5.499999999999999E-003    9.082407781072607E-011
 -5.399999999999999E-003    2.838450536128216E-010
 -5.299999999999999E-003    4.791266730426439E-010
 -5.199999999999999E-003    6.582577893627455E-010
 -5.099999999999999E-003    8.025641708982902E-010
 -4.999999999999999E-003    8.949289897307015E-010
 -4.899999999999999E-003    9.216174264380959E-010
 -4.799999999999999E-003    8.739235584331447E-010
 -4.699999999999999E-003    7.494611371222429E-010
 -4.599999999999999E-003    5.529403140707829E-010
 -4.499999999999999E-003    2.963108915977641E-010
 -4.399999999999999E-003   -1.793069514799921E-012
 -4.299999999999999E-003   -3.173084653899107E-010
 -4.199999999999999E-003   -6.226314064885598E-010
 -4.099999999999999E-003   -8.889999452652520E-010
 -3.999999999999999E-003   -1.089178234257586E-009
 -3.899999999999999E-003   -1.200201307016617E-009
 -3.799999999999999E-003   -1.205915853591177E-009
 -3.699999999999999E-003   -1.099054753122581E-009
 -3.599999999999999E-003   -8.826079125775675E-010
 -3.499999999999999E-003   -5.703044359461723E-010
 -3.399999999999999E-003   -1.860950319403846E-010
 -3.299999999999999E-003    2.373873319679468E-010
 -3.199999999999999E-003    6.613128614642063E-010
 -3.099999999999999E-003    1.043912168763880E-009
 -2.999999999999999E-003    1.344248055753921E-009
 -2.899999999999999E-003    1.526175294748621E-009
 -2.799999999999999E-003    1.562123621342645E-009
 -2.699999999999999E-003    1.436335599192091E-009
 -2.599999999999999E-003    1.147218105214669E-009
 -2.499999999999999E-003    7.085331648761754E-010
 -2.399999999999999E-003    1.492471154265956E-010
 -2.299999999999999E-003   -4.880228396448498E-010
 -2.199999999999999E-003   -1.149896365668151E-009
 -2.099999999999999E-003   -1.776256747768751E-009
 -1.999999999999999E-003   -2.305093298307305E-009
 -1.899999999999999E-003   -2.677756663151746E-009
 -1.799999999999999E-003   -2.844156220730093E-009
 -1.699999999999999E-003   -2.767416016232526E-009
 -1.599999999999999E-003   -2.427541075259860E-009
 -1.499999999999999E-003   -1.823718302716066E-009
 -1.399999999999999E-003   -9.749914769410507E-010
 -1.299999999999999E-003    8.079643698488493E-011
 -1.199999999999999E-003    1.289744528200298E-009
 -1.099999999999999E-003    2.586099137020593E-009
 -9.999999999999989E-004    3.897556501528220E-009
 -8.999999999999990E-004    5.151172626711982E-009
 -7.999999999999990E-004    6.279320733086132E-009
 -6.999999999999989E-004    7.225107064053367E-009
 -5.999999999999990E-004    7.946702018059675E-009
 -4.999999999999989E-004    8.420121970340755E-009
 -3.999999999999989E-004    8.640163380684624E-009
 -2.999999999999989E-004    8.619343507254170E-009
 -1.999999999999989E-004    8.384936779209093E-009
 -9.999999999999892E-005    7.974376448504912E-009
  1.084202172485504E-018    7.429489306178826E-009
  1.000000000000011E-004    6.790184364316048E-009
  2.000000000000011E-004    6.088297933298985E-009
  3.000000000000011E-004    5.342331166655965E-009
  4.000000000000011E-004    4.553771388368304E-009
  5.000000000000011E-004    3.705567507903135E-009
  6.000000000000011E-004    2.763150135444978E-009
  7.000000000000011E-004    1.678142090599368E-009
  8.000000000000011E-004    3.946730401743628E-010
  9.000000000000012E-004   -1.142068651843886E-009
  1.000000000000001E-003   -2.975668650728231E-009
  1.100000000000001E-003   -5.127478072268755E-009
  1.200000000000001E-003   -7.585731106821847E-009
  1.300000000000001E-003   -1.029569998304112E-008
  1.400000000000001E-003   -1.315189760592712E-008
  1.500000000000001E-003   -1.599303062323283E-008
  1.600000000000001E-003   -1.860035360504099E-008
  1.700000000000001E-003   -2.069964980841708E-008
  1.800000000000001E-003   -2.196683514987617E-008
  1.900000000000001E-003   -2.203682281164622E-008
  2.000000000000001E-003   -2.051494293435466E-008
  2.100000000000001E-003   -1.699000368346094E-008
  2.200000000000001E-003   -1.104780049034602E-008
  2.300000000000001E-003   -2.284005695026757E-009
  2.400000000000001E-003    9.684926474544054E-009
  2.500000000000001E-003    2.521379904306285E-008
  2.600000000000001E-003    4.462447335375048E-008
  2.700000000000001E-003    6.820595629046371E-008
  2.800000000000001E-003    9.621892538076347E-008
  2.900000000000001E-003    1.289042293481290E-007
  3.000000000000001E-003    1.664949389487167E-007
  3.100000000000001E-003    2.092308711871035E-007
  3.200000000000001E-003    2.573741834422511E-007
  3.300000000000001E-003    3.112248699180204E-007
  3.400000000000001E-003    3.711343999175688E-007
  3.500000000000001E-003    4.375167163430772E-007
  3.600000000000001E-003    5.108550381435970E-007
  3.700000000000001E-003    5.917040147149413E-007
  3.800000000000001E-003    6.806868706929836E-007
  3.900000000000001E-003    7.784878149271425E-007
  4.000000000000001E-003    8.858404454429111E-007
  4.100000000000001E-003    1.003512635115355E-006
  4.200000000000001E-003    1.132290238054150E-006
  4.300000000000001E-003    1.272960695004176E-006
  4.400000000000001E-003    1.426297786879236E-006
  4.500000000000001E-003    1.593049553298269E-006
  4.600000000000002E-003    1.773932013732959E-006
  4.700000000000001E-003    1.969626733471922E-006
  4.800000000000001E-003    2.180785437142590E-006
  4.900000000000002E-003    2.408039995227901E-006
  5.000000000000001E-003    2.652018781636035E-006
  5.100000000000001E-003    2.913365743680726E-006
  5.200000000000001E-003    3.192764635059329E-006
  5.300000000000002E-003    3.490961787947608E-006
  5.400000000000001E-003    3.808789628394120E-006
  5.500000000000001E-003    4.147186833338085E-006
  5.600000000000002E-003    4.507213992659962E-006
  5.700000000000001E-003    4.890063788250522E-006
  5.800000000000001E-003    5.297064595611656E-006
  5.900000000000002E-003    5.729677093979631E-006
  6.000000000000001E-003    6.189486137833630E-006
  6.100000000000001E-003    6.678185762371200E-006
  6.200000000000002E-003    7.197561827625719E-006
  6.300000000000002E-003    7.749474065386259E-006
  6.400000000000001E-003    8.335837724025446E-006
  6.500000000000001E-003    8.958608757872241E-006
  6.600000000000002E-003    9.619776848455688E-006
  6.700000000000001E-003    1.032135994114593E-005
  6.800000000000001E-003    1.106541253770396E-005
  6.900000000000002E-003    1.185403846266903E-005
  7.000000000000001E-003    1.268941365302517E-005
  7.100000000000001E-003    1.357381178503489E-005
  7.200000000000002E-003    1.450964083207392E-005
  7.300000000000002E-003    1.549947702010316E-005
  7.400000000000001E-003    1.654610274533100E-005
  7.500000000000001E-003    1.765253322303078E-005
  7.600000000000002E-003    1.882205157941754E-005
  7.700000000000001E-003    2.005822242484306E-005
  7.800000000000001E-003    2.136490251943612E-005
  7.900000000000001E-003    2.274624447003719E-005
  8.000000000000002E-003    2.420668414876726E-005
  8.100000000000001E-003    2.575093038843031E-005
  8.200000000000001E-003    2.738393208937699E-005
  8.300000000000002E-003    2.911086097917610E-005
  8.400000000000001E-003    3.093708235655771E-005
  8.500000000000002E-003    3.286812606647848E-005
  8.600000000000002E-003    3.490967416004924E-005
  8.700000000000001E-003    3.706755511156244E-005
  8.800000000000002E-003    3.934774099751759E-005
  8.900000000000002E-003    4.175635894744863E-005
  9.000000000000001E-003    4.429972606170997E-005
  9.100000000000002E-003    4.698438726771925E-005
  9.200000000000002E-003    4.981715468403418E-005
  9.300000000000001E-003    5.280516578780041E-005
  9.400000000000002E-003    5.595594108234684E-005
  9.500000000000001E-003    5.927743967666049E-005
  9.600000000000001E-003    6.277809656944999E-005
  9.700000000000002E-003    6.646688442128116E-005
  9.800000000000001E-003    7.035332941111230E-005
  9.900000000000001E-003    7.444753099389810E-005
  1.000000000000000E-002    7.876018231991344E-005
  1.010000000000000E-002    8.330254409829226E-005
  1.020000000000000E-002    8.808644517603693E-005
  1.030000000000000E-002    9.312426134802606E-005
  1.040000000000000E-002    9.842887868837823E-005
  1.050000000000000E-002    1.040136898199061E-004
  1.060000000000000E-002    1.098925527408033E-004
  1.070000000000000E-002    1.160798176914049E-004
  1.080000000000000E-002    1.225902982794383E-004
  1.090000000000000E-002    1.294393208972258E-004
  1.100000000000000E-002    1.366427307533334E-004
  1.110000000000000E-002    1.442169775714533E-004
  1.120000000000000E-002    1.521791308988389E-004
  1.130000000000000E-002    1.605470217306638E-004
  1.140000000000000E-002    1.693392241145421E-004
  1.150000000000000E-002    1.785752232461198E-004
  1.160000000000000E-002    1.882754032425395E-004
  1.170000000000000E-002    1.984611822536931E-004
  1.180000000000000E-002    2.091550078623240E-004
  1.190000000000000E-002    2.203804197609039E-004
  1.200000000000000E-002    2.321620360273294E-004
  1.210000000000000E-002    2.445255915849007E-004
  1.220000000000000E-002    2.574979430720105E-004
  1.230000000000000E-002    2.711069634960669E-004
  1.240000000000000E-002    2.853815900574351E-004
  1.250000000000000E-002    3.003518146132122E-004
  1.260000000000000E-002    3.160485621986316E-004
  1.270000000000000E-002    3.325038154946247E-004
  1.280000000000000E-002    3.497505073082833E-004
  1.290000000000000E-002    3.678226522547968E-004
  1.300000000000000E-002    3.867552635281361E-004
  1.310000000000000E-002    4.065845272846636E-004
  1.320000000000000E-002    4.273478527206809E-004
  1.330000000000000E-002    4.490839518388719E-004
  1.340000000000000E-002    4.718329216898828E-004
  1.350000000000000E-002    4.956363927809821E-004
  1.360000000000000E-002    5.205376307143982E-004
  1.370000000000000E-002    5.465815528193041E-004
  1.380000000000000E-002    5.738149339886180E-004
  1.390000000000000E-002    6.022863821948792E-004
  1.400000000000000E-002    6.320464412984550E-004
  1.410000000000000E-002    6.631475158100394E-004
  1.420000000000000E-002    6.956439762625798E-004
  1.430000000000000E-002    7.295921792323882E-004
  1.440000000000000E-002    7.650502750694993E-004
  1.450000000000000E-002    8.020783904825390E-004
  1.460000000000000E-002    8.407385297464374E-004
  1.470000000000000E-002    8.810944918962187E-004
  1.480000000000000E-002    9.232118996171186E-004
  1.490000000000000E-002    9.671583159535749E-004
  1.500000000000000E-002    1.013003169260115E-003
  1.510000000000000E-002    1.060817815837865E-003
  1.520000000000000E-002    1.110675609506996E-003
  1.530000000000000E-002    1.162652167034935E-003
  1.540000000000000E-002    1.216825150790266E-003
  1.550000000000000E-002    1.273274489863136E-003
  1.560000000000000E-002    1.332082638282414E-003
  1.570000000000000E-002    1.393334428293539E-003
  1.580000000000000E-002    1.457117446474116E-003
  1.590000000000000E-002    1.523521874213814E-003
  1.600000000000000E-002    1.592640596467942E-003
  1.610000000000000E-002    1.664569397808356E-003
  1.620000000000000E-002    1.739406682988369E-003
  1.630000000000000E-002    1.817253605294358E-003
  1.640000000000000E-002    1.898214092652445E-003
  1.650000000000000E-002    1.982394786376399E-003
  1.660000000000000E-002    2.069905011178734E-003
  1.670000000000000E-002    2.160856923224941E-003
  1.680000000000000E-002    2.255365121254448E-003
  1.690000000000000E-002    2.353546622565236E-003
  1.700000000000000E-002    2.455521351162626E-003
  1.710000000000000E-002    2.561412169072204E-003
  1.720000000000000E-002    2.671343846775515E-003
  1.730000000000000E-002    2.785444479565953E-003
  1.740000000000000E-002    2.903844988595744E-003
  1.750000000000000E-002    3.026678781513330E-003
  1.760000000000000E-002    3.154082675542000E-003
  1.770000000000000E-002    3.286196407503639E-003
  1.780000000000000E-002    3.423162355768773E-003
  1.790000000000000E-002    3.565126866565310E-003
  1.800000000000000E-002    3.712238822556706E-003
  1.810000000000000E-002    3.864650600801031E-003
  1.820000000000000E-002    4.022517321229245E-003
  1.830000000000000E-002    4.185997823496786E-003
  1.840000000000000E-002    4.355253106001360E-003
  1.850000000000000E-002    4.530447069502088E-003
  1.860000000000000E-002    4.711747014383556E-003
  1.870000000000000E-002    4.899322633513068E-003