 -4.000000000000000E-002    0.000000000000000E+000
 -3.990000000000000E-002    0.000000000000000E+000
 -3.980000000000000E-002    0.000000000000000E+000
 -3.970000000000000E-002    0.000000000000000E+000
 -3.960000000000000E-002    0.000000000000000E+000
 -3.950000000000000E-002    0.000000000000000E+000
 -3.940000000000000E-002    0.000000000000000E+000
 -3.930000000000000E-002    0.000000000000000E+000
 -3.920000000000000E-002    0.000000000000000E+000
 -3.910000000000000E-002    0.000000000000000E+000
 -3.900000000000000E-002    0.000000000000000E+000
 -3.890000000000000E-002    0.000000000000000E+000
 -3.880000000000000E-002    0.000000000000000E+000
 -3.870000000000000E-002    0.000000000000000E+000
 -3.860000000000000E-002    0.000000000000000E+000
 -3.850000000000000E-002    0.000000000000000E+000
 -3.840000000000000E-002    0.000000000000000E+000
 -3.830000000000000E-002    0.000000000000000E+000
 -3.820000000000000E-002    0.000000000000000E+000
 -3.810000000000000E-002    0.000000000000000E+000
 -3.800000000000000E-002    0.000000000000000E+000
 -3.790000000000000E-002    0.000000000000000E+000
 -3.780000000000000E-002    0.000000000000000E+000
 -3.770000000000000E-002    0.000000000000000E+000
 -3.760000000000000E-002    0.000000000000000E+000
 -3.750000000000000E-002    0.000000000000000E+000
 -3.740000000000000E-002    0.000000000000000E+000
 -3.730000000000000E-002   -8.552847072295026E-048
 -3.720000000000000E-002   -1.203009764686380E-046
 -3.710000000000000E-002   -6.121959411835589E-046
 -3.700000000000000E-002   -2.538133799594783E-045
 -3.690000000000000E-002   -9.627872459488920E-045
 -3.680000000000000E-002   -3.286257557729758E-044
 -3.670000000000000E-002   -1.082144102240120E-043
 -3.660000000000000E-002   -3.316210775222563E-043
 -3.650000000000000E-002   -9.572368451676278E-043
 -3.640000000000000E-002   -2.613487943462443E-042
 -3.630000000000000E-002   -6.770415669246797E-042
 -3.620000000000000E-002   -1.668330402150824E-041
 -3.610000000000000E-002   -3.914453931920389E-041
 -3.600000000000000E-002   -8.751833368194680E-041
 -3.590000000000000E-002   -1.864179947520738E-040
 -3.580000000000000E-002   -3.778404403974004E-040
 -3.570000000000000E-002   -7.267550872090823E-040
 -3.560000000000000E-002   -1.319903489189829E-039
 -3.550000000000000E-002   -2.243005095728370E-039
 -3.540000000000000E-002   -3.506075400722496E-039
 -3.530000000000000E-002   -4.861534691818348E-039
 -3.520000000000000E-002   -5.423871964633705E-039
 -3.510000000000000E-002   -2.956088927418095E-039
 -3.500000000000000E-002    7.349640946911423E-039
 -3.490000000000000E-002    3.476961251290227E-038
 -3.480000000000000E-002    9.569683572461075E-038
 -3.470000000000000E-002    2.168071426802741E-037
 -3.460000000000000E-002    4.378457362844809E-037
 -3.450000000000000E-002    8.119131607244899E-037
 -3.440000000000000E-002    1.399140157607754E-036
 -3.430000000000000E-002    2.246758245802598E-036
 -3.420000000000000E-002    3.344914323354085E-036
 -3.410000000000000E-002    4.543766265603319E-036
 -3.400000000000000E-002    5.414938061782962E-036
 -3.390000000000000E-002    5.042116288768776E-036
 -3.380000000000000E-002    1.735970182985265E-036
 -3.370000000000000E-002   -7.305879773838837E-036
 -3.360000000000000E-002   -2.632446893856944E-035
 -3.350000000000000E-002   -6.116140085591635E-035
 -3.340000000000000E-002   -1.189913002806271E-034
 -3.330000000000000E-002   -2.072082930102113E-034
 -3.320000000000000E-002   -3.308825992041818E-034
 -3.310000000000000E-002   -4.880614844202421E-034
 -3.300000000000000E-002   -6.621494235300541E-034
 -3.290000000000000E-002   -8.107872151384353E-034
 -3.280000000000000E-002   -8.512240096824139E-034
 -3.270000000000000E-002   -6.433437428301838E-034
 -3.260000000000000E-002    2.652999266851436E-035
 -3.250000000000000E-002    1.455023715999403E-033
 -3.240000000000000E-002    4.014447867581979E-033
 -3.230000000000000E-002    8.114593129156861E-033
 -3.220000000000000E-002    1.411507207486857E-032
 -3.210000000000000E-002    2.216706566998146E-032
 -3.200000000000000E-002    3.196455226596155E-032
 -3.190000000000000E-002    4.239316945838454E-032
 -3.180000000000000E-002    5.108332984460490E-032
 -3.170000000000000E-002    5.390686429950872E-032
 -3.160000000000000E-002    4.450590243503157E-032
 -3.150000000000000E-002    1.400942962350352E-032
 -3.140000000000000E-002   -4.882690943933206E-032
 -3.130000000000000E-002   -1.567394698732133E-031
 -3.120000000000000E-002   -3.219490239084027E-031
 -3.110000000000000E-002   -5.526227877071121E-031
 -3.100000000000000E-002   -8.474690178963872E-031
 -3.090000000000000E-002   -1.188329829475528E-030
 -3.080000000000000E-002   -1.531026404999791E-030
 -3.070000000000000E-002   -1.795324610536135E-030
 -3.060000000000000E-002   -1.855744619894268E-030
 -3.050000000000000E-002   -1.535999850564241E-030
 -3.040000000000000E-002   -6.110168494038674E-031
 -3.030000000000000E-002    1.178447048710702E-030
 -3.020000000000000E-002    4.092913402337794E-030
 -3.010000000000000E-002    8.337525274024046E-030
 -3.000000000000000E-002    1.397766291069930E-029
 -2.990000000000000E-002    2.082628632226988E-029
 -2.980000000000000E-002    2.830827736182811E-029
 -2.970000000000000E-002    3.531541998160410E-029
 -2.960000000000000E-002    4.007653657171442E-029
 -2.950000000000000E-002    4.007976836302915E-029
 -2.940000000000000E-002    3.209647105165714E-029
 -2.930000000000000E-002    1.236607303174116E-029
 -2.920000000000000E-002   -2.299514876492738E-029
 -2.910000000000000E-002   -7.730553356782790E-029
 -2.900000000000000E-002   -1.523164851450097E-028
 -2.890000000000000E-002   -2.469073035881189E-028
 -2.880000000000000E-002   -3.555512141104469E-028
 -2.870000000000000E-002   -4.667155632286824E-028
 -2.860000000000000E-002   -5.614651791155711E-028
 -2.850000000000000E-002   -6.126514474837314E-028
 -2.840000000000000E-002   -5.851717860989502E-028
 -2.830000000000000E-002   -4.378494855927115E-028
 -2.820000000000000E-002   -1.274807837231617E-028
 -2.810000000000000E-002    3.845123896534440E-028
 -2.800000000000000E-002    1.122634597394346E-027
 -2.790000000000000E-002    2.085295986003100E-027
 -2.780000000000000E-002    3.231028707824405E-027
 -2.770000000000000E-002    4.464488871097078E-027
 -2.760000000000000E-002    5.624622360223083E-027
 -2.750000000000000E-002    6.478196767324777E-027
 -2.740000000000000E-002    6.722544715916243E-027
 -2.730000000000000E-002    6.001656117489158E-027
 -2.720000000000000E-002    3.939434655986173E-027
 -2.710000000000000E-002    1.928020149662684E-028
 -2.700000000000000E-002   -5.474823533961070E-027
 -2.690000000000000E-002   -1.310241617742286E-026
 -2.680000000000000E-002   -2.242964260193335E-026
 -2.670000000000000E-002   -3.279674788434242E-026
 -2.660000000000000E-002   -4.306352495547984E-026
 -2.650000000000000E-002   -5.156971676786957E-026
 -2.640000000000000E-002   -5.616232162621693E-026
 -2.630000000000000E-002   -5.431559817751051E-026
 -2.620000000000000E-002   -4.336560860615209E-026
 -2.610000000000000E-002   -2.087183640407211E-026
 -2.600000000000000E-002    1.489713508640247E-026
 -2.590000000000000E-002    6.437841527883253E-026
 -2.580000000000000E-002    1.260816047068991E-025
 -2.570000000000000E-002    1.959887524801201E-025
 -2.560000000000000E-002    2.670977098944074E-025
 -2.550000000000000E-002    3.292419039630111E-025
 -2.540000000000000E-002    3.693308234771858E-025
 -2.530000000000000E-002    3.721470610066992E-025
 -2.520000000000000E-002    3.218028052488877E-025
 -2.510000000000000E-002    2.038956793653786E-025
 -2.500000000000000E-002    8.308526339755793E-027
 -2.490000000000000E-002   -2.675251992641838E-025
 -2.480000000000000E-002   -6.152132892640896E-025
 -2.470000000000000E-002   -1.012325800274503E-024
 -2.460000000000000E-002   -1.420249634412852E-024
 -2.450000000000000E-002   -1.783669751879067E-024
 -2.440000000000000E-002   -2.032384144190932E-024
 -2.430000000000000E-002   -2.086068899303405E-024
 -2.420000000000000E-002   -1.862386735236082E-024
 -2.410000000000000E-002   -1.288468838278898E-024
 -2.400000000000000E-002   -3.152926691514904E-025
 -2.390000000000000E-002    1.066140855968321E-024
 -2.380000000000000E-002    2.808603667766003E-024
 -2.370000000000000E-002    4.794838617142891E-024
 -2.360000000000000E-002    6.829099133861794E-024
 -2.350000000000000E-002    8.637240207201608E-024
 -2.340000000000000E-002    9.878411409354226E-024
 -2.330000000000000E-002    1.017077877208786E-023
 -2.320000000000000E-002    9.132432481450645E-024
 -2.310000000000000E-002    6.436818420866850E-024
 -2.300000000000000E-002    1.879599624670357E-024
 -2.290000000000000E-002   -4.548866264962183E-024
 -2.280000000000000E-002   -1.259411719848694E-023
 -2.270000000000000E-002   -2.168242387342064E-023
 -2.260000000000000E-002   -3.089279662410398E-023
 -2.250000000000000E-002   -3.896942670116690E-023
 -2.240000000000000E-002   -4.438647853755511E-023
 -2.230000000000000E-002   -4.547338599693275E-023
 -2.220000000000000E-002   -4.060291788090825E-023
 -2.210000000000000E-002   -2.843577487174850E-023
 -2.200000000000000E-002   -8.205471025146452E-024
 -2.190000000000000E-002    1.998395256510206E-023
 -2.180000000000000E-002    5.488543622080171E-023
 -2.170000000000000E-002    9.390837043558325E-023
 -2.160000000000000E-002    1.330414431997603E-022
 -2.150000000000000E-002    1.669491012017651E-022
 -2.140000000000000E-002    1.892831312243095E-022
 -2.130000000000000E-002    1.932337085577156E-022
 -2.120000000000000E-002    1.723181342594414E-022
 -2.110000000000000E-002    1.213716426857383E-022
 -2.100000000000000E-002    3.766580668904832E-023
 -2.090000000000000E-002   -7.796054637575430E-023
 -2.080000000000000E-002   -2.201094672230801E-022
 -2.070000000000000E-002   -3.781490776153725E-022
 -2.060000000000000E-002   -5.360431689960037E-022
 -2.050000000000000E-002   -6.728592825785753E-022
 -2.040000000000000E-002   -7.640872157142690E-022
 -2.030000000000000E-002   -7.838294232279800E-022
 -2.020000000000000E-002   -7.078222403496844E-022
 -2.010000000000000E-002   -5.171244073334957E-022
 -2.000000000000000E-002   -2.021712663837423E-022
 -1.990000000000000E-002    2.332415328851832E-022
 -1.980000000000000E-002    7.685951181619995E-022
 -1.970000000000000E-002    1.364525877400508E-021
 -1.960000000000000E-002    1.962575359126690E-021
 -1.950000000000000E-002    2.487363966021902E-021
 -1.940000000000000E-002    2.851574208734122E-021
 -1.930000000000000E-002    2.963861145882560E-021
 -1.920000000000000E-002    2.739452084138934E-021
 -1.910000000000000E-002    2.112785743917486E-021
 -1.900000000000000E-002    1.051090270193025E-021
 -1.890000000000000E-002   -4.326040893678907E-022
 -1.880000000000000E-002   -2.268854647535992E-021
 -1.870000000000000E-002   -4.325593742110598E-021
 -1.860000000000000E-002   -6.408267518225078E-021
 -1.850000000000000E-002   -8.267944729483251E-021
 -1.840000000000000E-002   -9.618419494807193E-021
 -1.830000000000000E-002   -1.016241714836105E-020
 -1.820000000000000E-002   -9.625868035592012E-021
 -1.810000000000000E-002   -7.797941821463313E-021
 -1.800000000000000E-002   -4.573188428183069E-021
 -1.790000000000000E-002    9.017866743791936E-024
 -1.780000000000000E-002    5.733378498983492E-021
 -1.770000000000000E-002    1.219188752283793E-020
 -1.760000000000000E-002    1.878695757530630E-020
 -1.750000000000000E-002    2.475888371159887E-020
 -1.740000000000000E-002    2.924007465138380E-020
 -1.730000000000000E-002    3.133561606937757E-020
 -1.720000000000000E-002    3.022641787815312E-020
 -1.710000000000000E-002    2.528736980364382E-020
 -1.700000000000000E-002    1.620935058421094E-020
 -1.690000000000000E-002    3.110827242654538E-021
 -1.680000000000000E-002   -1.337718108664295E-020
 -1.670000000000000E-002   -3.206942670741374E-020
 -1.660000000000000E-002   -5.124310350962975E-020
 -1.650000000000000E-002   -6.872405089247484E-020
 -1.640000000000000E-002   -8.204762880253038E-020
 -1.630000000000000E-002   -8.869120813584407E-020
 -1.620000000000000E-002   -8.636589379894405E-020
 -1.610000000000000E-002   -7.334479838322998E-020
 -1.600000000000000E-002   -4.879592884211881E-020
 -1.590000000000000E-002   -1.308006997127622E-020
 -1.580000000000000E-002    3.203024887301409E-020
 -1.570000000000000E-002    8.325433944421038E-020
 -1.560000000000000E-002    1.358677229638837E-019
 -1.550000000000000E-002    1.839539382040342E-019
 -1.540000000000000E-002    2.208532875889852E-019
 -1.530000000000000E-002    2.397963185413941E-019
 -1.520000000000000E-002    2.346847434146243E-019
 -1.510000000000000E-002    2.009570161274138E-019
 -1.500000000000000E-002    1.364524635314102E-019
 -1.490000000000000E-002    4.217053060360429E-020
 -1.480000000000000E-002   -7.718695879774880E-020
 -1.470000000000000E-002   -2.129995327324055E-019
 -1.460000000000000E-002   -3.529298060633153E-019
 -1.450000000000000E-002   -4.816034407727785E-019
 -1.440000000000000E-002   -5.817837894281375E-019
 -1.430000000000000E-002   -6.360004356003946E-019
 -1.420000000000000E-002   -6.285314668764616E-019
 -1.410000000000000E-002   -5.475753471377044E-019
 -1.400000000000000E-002   -3.873962559221614E-019
 -1.390000000000000E-002   -1.501866275032513E-019
 -1.380000000000000E-002    1.526243172006679E-019
 -1.370000000000000E-002    4.998748375129035E-019
 -1.360000000000000E-002    8.611996880628861E-019
 -1.350000000000000E-002    1.198716748244672E-018
 -1.340000000000000E-002    1.469895523796821E-018
 -1.330000000000000E-002    1.631495600960225E-018
 -1.320000000000000E-002    1.644323571397959E-018
 -1.310000000000000E-002    1.478412303681872E-018
 -1.300000000000000E-002    1.118108423904314E-018
 -1.290000000000000E-002    5.664716358497391E-019
 -1.280000000000000E-002   -1.516396388751995E-019
 -1.270000000000000E-002   -9.883812104599383E-019
 -1.260000000000000E-002   -1.874105175242267E-018
 -1.250000000000000E-002   -2.721196367885097E-018
 -1.240000000000000E-002   -3.430594976681038E-018
 -1.230000000000000E-002   -3.900735695450189E-018
 -1.220000000000000E-002   -4.038318706521069E-018
 -1.210000000000000E-002   -3.770015566087967E-018
 -1.200000000000000E-002   -3.053963777726561E-018
 -1.190000000000000E-002   -1.889729319159620E-018
 -1.180000000000000E-002   -3.253669002623541E-019
 -1.170000000000000E-002    1.539678839463788E-018
 -1.160000000000000E-002    3.556849563410041E-018
 -1.150000000000000E-002    5.536519868909681E-018
 -1.140000000000000E-002    7.261857140772909E-018
 -1.130000000000000E-002    8.507913288645449E-018
 -1.120000000000000E-002    9.064678398710531E-018
 -1.110000000000000E-002    8.762194454508576E-018
 -1.100000000000000E-002    7.495301241594820E-018
 -1.090000000000000E-002    5.245237743035990E-018
 -1.080000000000000E-002    2.095263364560215E-018
 -1.070000000000000E-002   -1.762352272726346E-018
 -1.060000000000000E-002   -6.030055597378841E-018
 -1.050000000000000E-002   -1.032067284677793E-017
 -1.040000000000000E-002   -1.418514390747000E-017
 -1.030000000000000E-002   -1.715114043783553E-017
 -1.020000000000000E-002   -1.877001641609334E-017
 -1.010000000000000E-002   -1.866827738393469E-017
 -1.000000000000000E-002   -1.659867578671029E-017
 -9.899999999999999E-003   -1.248539997303022E-017
 -9.800000000000000E-003   -6.457617120481396E-018
 -9.699999999999999E-003    1.133911440335359E-018
 -9.599999999999999E-003    9.721365549756907E-018
 -9.500000000000000E-003    1.854817652051912E-017
 -9.399999999999999E-003    2.672143523670195E-017
 -9.299999999999999E-003    3.328632187781194E-017
 -9.200000000000000E-003    3.731778080955032E-017
 -9.099999999999999E-003    3.802216615464443E-017
 -8.999999999999999E-003    3.483954499999983E-017
 -8.900000000000000E-003    2.753595209477059E-017
 -8.799999999999999E-003    1.627450386913759E-017
 -8.699999999999999E-003    1.655034621744172E-018
 -8.600000000000000E-003   -1.528635619496609E-017
 -8.499999999999999E-003   -3.312318847955232E-017
 -8.399999999999999E-003   -5.013139777305953E-017
 -8.300000000000000E-003   -6.442578500310103E-017
 -8.199999999999999E-003   -7.413200556721411E-017
 -8.100000000000000E-003   -7.758100524159160E-017
 -8.000000000000000E-003   -7.350901341667687E-017
 -7.899999999999999E-003   -6.124327288877727E-017
 -7.800000000000000E-003   -4.085265977636794E-017
 -7.699999999999999E-003   -1.324316853787310E-017
 -7.599999999999999E-003    1.981871860728227E-017
 -7.499999999999999E-003    5.576652349294129E-017
 -7.399999999999999E-003    9.138312692039132E-017
 -7.299999999999999E-003    1.230351760505024E-016
 -7.199999999999999E-003    1.469804237317242E-016
 -7.100000000000000E-003    1.597262441843284E-016
 -6.999999999999999E-003    1.584103812676352E-016
 -6.899999999999999E-003    1.411688484054942E-016
 -6.800000000000000E-003    1.074529208870470E-016
 -6.699999999999999E-003    5.825750431564787E-017
 -6.599999999999999E-003   -3.772632023827267E-018
 -6.499999999999999E-003   -7.438458266231099E-017
 -6.399999999999999E-003   -1.479211743225584E-016
 -6.299999999999999E-003   -2.176870009025194E-016
 -6.199999999999999E-003   -2.764612691300561E-016
 -6.100000000000000E-003   -3.171256941739333E-016
 -5.999999999999999E-003   -3.333605872768718E-016
 -5.899999999999999E-003   -3.203505031068366E-016
 -5.800000000000000E-003   -2.754329870555421E-016
 -5.699999999999999E-003   -1.986211582793027E-016
 -5.599999999999999E-003   -9.293512009300441E-017
 -5.499999999999999E-003    3.551173908055574E-017
 -5.399999999999999E-003    1.777089425078224E-016
 -5.299999999999999E-003    3.222428838837407E-016
 -5.199999999999999E-003    4.560752787107849E-016
 -5.099999999999999E-003    5.655675472391359E-016
 -4.999999999999999E-003    6.376811849460137E-016
 -4.899999999999999E-003    6.612630487018009E-016
 -4.799999999999999E-003    6.283031214359387E-016
 -4.699999999999999E-003    5.350442108420218E-016
 -4.599999999999999E-003    3.828217021768499E-016
 -4.499999999999999E-003    1.785245256467639E-016
 -4.399999999999999E-003   -6.540861951519731E-017
 -4.299999999999999E-003   -3.315125948021670E-016
 -4.199999999999999E-003   -5.983439915749186E-016
 -4.099999999999999E-003   -8.420188163641018E-016
 -3.999999999999999E-003   -1.038148958743569E-015
 -3.899999999999999E-003   -1.164039420254478E-015
 -3.799999999999999E-003   -1.200970508014053E-015
 -3.699999999999999E-003   -1.136359861152916E-015
 -3.599999999999999E-003   -9.655863176285225E-016
 -3.499999999999999E-003   -6.932681541739004E-016
 -3.399999999999999E-003   -3.338137702179574E-016
 -3.299999999999999E-003    8.889056581495134E-017
 -3.199999999999999E-003    5.427158604309747E-016
 -3.099999999999999E-003    9.894395183021105E-016
 -2.999999999999999E-003    1.387700737043810E-015
 -2.899999999999999E-003    1.696573916026324E-015
 -2.799999999999999E-003    1.879483041861110E-015
 -2.699999999999999E-003    1.908121872525081E-015
 -2.599999999999999E-003    1.766007101269437E-015
 -2.499999999999999E-003    1.451272793960819E-015
 -2.399999999999999E-003    9.783652417538013E-016
 -2.299999999999999E-003    3.783327677470837E-016
 -2.199999999999999E-003   -3.024538662108921E-016
 -2.099999999999999E-003   -1.005222315494276E-015
 -1.999999999999999E-003   -1.663249724682459E-015
 -1.899999999999999E-003   -2.207586158329482E-015
 -1.799999999999999E-003   -2.573635892269056E-015
 -1.699999999999999E-003   -2.708042738195582E-015
 -1.599999999999999E-003   -2.575241363994191E-015
 -1.499999999999999E-003   -2.162991162385600E-015
 -1.399999999999999E-003   -1.486218980322437E-015
 -1.299999999999999E-003   -5.885955941835875E-016
 -1.199999999999999E-003    4.585651842427274E-016
 -1.099999999999999E-003    1.560310840403061E-015
 -9.999999999999989E-004    2.604895855521989E-015
 -8.999999999999990E-004    3.473121056733453E-015
 -7.999999999999990E-004    4.049555151964985E-015
 -6.999999999999989E-004    4.234738666301913E-015
 -5.999999999999990E-004    3.957280784907766E-015
 -4.999999999999989E-004    3.184645764212666E-015
 -3.999999999999989E-004    1.931397434953627E-015
 -2.999999999999989E-004    2.637813394708269E-016
 -1.999999999999989E-004   -1.700251298731844E-015
 -9.999999999999892E-005   -3.796131939763396E-015
  1.084202172485504E-018   -5.822994897099634E-015
  1.000000000000011E-004   -7.558860521783225E-015
  2.000000000000011E-004   -8.779799090340723E-015
  3.000000000000011E-004   -9.281673885166002E-015
  4.000000000000011E-004   -8.902693543805777E-015
  5.000000000000011E-004   -7.544704985392969E-015
  6.000000000000011E-004   -5.191008066667660E-015
  7.000000000000011E-004   -1.918627270581935E-015
  8.000000000000011E-004    2.096815577687925E-015
  9.000000000000012E-004    6.584923418048846E-015
  1.000000000000001E-003    1.119366587161347E-014
  1.100000000000001E-003    1.551173756605761E-014
  1.200000000000001E-003    1.909902079400198E-014
  1.300000000000001E-003    2.152329429553800E-014
  1.400000000000001E-003    2.240045302732854E-014
  1.500000000000001E-003    2.143500161751860E-014
  1.600000000000001E-003    1.845710432449523E-014
  1.700000000000001E-003    1.345254689460646E-014
  1.800000000000001E-003    6.582081640663659E-015
  1.900000000000001E-003   -1.812533158848230E-015
  2.000000000000001E-003   -1.121783257918405E-014
  2.100000000000001E-003   -2.097382766035878E-014
  2.200000000000001E-003   -3.031452454646169E-014
  2.300000000000001E-003   -3.842165785823157E-014
  2.400000000000001E-003   -4.448820636131957E-014
  2.500000000000001E-003   -4.778712953874943E-014
  2.600000000000001E-003   -4.773992225439705E-014
  2.700000000000001E-003   -4.397900352991994E-014
  2.800000000000001E-003   -3.639830419133467E-014
  2.900000000000001E-003   -2.518657989068212E-014
  3.000000000000001E-003   -1.083936793210688E-014
  3.100000000000001E-003    5.853216406574269E-015
  3.200000000000001E-003    2.384372499278905E-014
  3.300000000000001E-003    4.188856014508612E-014
  3.400000000000001E-003    5.862988775041095E-014
  3.500000000000001E-003    7.269310784202419E-014
  3.600000000000001E-003    8.279314752878525E-014
  3.700000000000001E-003    8.784156981119841E-014
  3.800000000000001E-003    8.704599197032659E-014
  3.900000000000001E-003    7.999319552103382E-014
  4.000000000000001E-003    6.670846319394430E-014
  4.100000000000001E-003    4.768454525526687E-014
  4.200000000000001E-003    2.387617118734118E-014
  4.300000000000001E-003   -3.341610118604355E-015
  4.400000000000001E-003   -3.225045191206443E-014
  4.500000000000001E-003   -6.089711581131092E-014
  4.600000000000002E-003   -8.722672378794205E-014
  4.700000000000001E-003   -1.092320628518426E-013
  4.800000000000001E-003   -1.251081659368661E-013
  4.900000000000002E-003   -1.334004455213511E-013
  5.000000000000001E-003   -1.331344119874848E-013
  5.100000000000001E-003   -1.239158164870653E-013
  5.200000000000001E-003   -1.059913484672736E-013
  5.300000000000002E-003   -8.026296392217373E-014
  5.400000000000001E-003   -4.825153544807757E-014
  5.500000000000001E-003   -1.200959649075960E-014
  5.600000000000002E-003    2.601304282790339E-014
  5.700000000000001E-003    6.314323000155658E-014
  5.800000000000001E-003    9.668641283020704E-014
  5.900000000000002E-003    1.241422731285462E-013
  6.000000000000001E-003    1.434169727932518E-013
  6.100000000000001E-003    1.530140926787211E-013
  6.200000000000002E-003    1.521863498567480E-013
  6.300000000000002E-003    1.410328908338172E-013
  6.400000000000001E-003    1.205282232222771E-013
  6.500000000000001E-003    9.247551073611263E-014
  6.600000000000002E-003    5.938120503635932E-014
  6.700000000000001E-003    2.425583933796640E-014
  6.800000000000001E-003   -9.648058052640876E-015
  6.900000000000002E-003   -3.914213667516784E-014
  7.000000000000001E-003   -6.142826263968556E-014
  7.100000000000001E-003   -7.441554386284710E-014
  7.200000000000002E-003   -7.699577722449275E-014
  7.300000000000002E-003   -6.924586102624626E-014
  7.400000000000001E-003   -5.252834549823868E-014
  7.500000000000001E-003   -2.946759060804603E-014
  7.600000000000002E-003   -3.787767584705325E-015
  7.700000000000001E-003    1.998885090858878E-014
  7.800000000000001E-003    3.697092298419772E-014
  7.900000000000001E-003    4.242759280278275E-014
  8.000000000000002E-003    3.237832148405260E-014
  8.100000000000001E-003    4.188367363948087E-015
  8.200000000000001E-003   -4.288851201328719E-014
  8.300000000000002E-003   -1.072897793430966E-013
  8.400000000000001E-003   -1.849053961604644E-013
  8.500000000000002E-003   -2.690770237235795E-013
  8.600000000000002E-003   -3.508721863998447E-013
  8.700000000000001E-003   -4.196487851885622E-013
  8.800000000000002E-003   -4.638990431088164E-013
  8.900000000000002E-003   -4.723291943257668E-013
  9.000000000000001E-003   -4.351032217302963E-013
  9.100000000000002E-003   -3.451496110929676E-013
  9.200000000000002E-003   -1.994040651632841E-013
  9.300000000000001E-003    1.433185707424636E-016
  9.400000000000002E-003    2.457369775786579E-013
  9.500000000000001E-003    5.236053350113645E-013
  9.600000000000001E-003    8.142674333940890E-013
  9.700000000000002E-003    1.093453974835575E-012
  9.800000000000001E-003    1.333644257257421E-012
  9.900000000000001E-003    1.506165155152734E-012
  1.000000000000000E-002    1.583726150671949E-012
  1.010000000000000E-002    1.543209465466927E-012
  1.020000000000000E-002    1.368481456126176E-012
  1.030000000000000E-002    1.052955582076484E-012
  1.040000000000000E-002    6.016233336580858E-013
  1.050000000000000E-002    3.228632832345656E-014
  1.060000000000000E-002   -6.242416587178093E-013
  1.070000000000000E-002   -1.325119693105411E-012
  1.080000000000000E-002   -2.017715483199748E-012
  1.090000000000000E-002   -2.643044354830320E-012
  1.100000000000000E-002   -3.140237972719400E-012
  1.110000000000000E-002   -3.451754255866687E-012
  1.120000000000000E-002   -3.528926171754582E-012
  1.130000000000000E-002   -3.337369609000961E-012
  1.140000000000000E-002   -2.861723229462192E-012
  1.150000000000000E-002   -2.109203254943950E-012
  1.160000000000000E-002   -1.111498883621730E-012
  1.170000000000000E-002    7.535489568925010E-014
  1.180000000000000E-002    1.373336171819594E-012
  1.190000000000000E-002    2.687050794383199E-012
  1.200000000000000E-002    3.910406011011693E-012
  1.210000000000000E-002    4.934941626906500E-012
  1.220000000000000E-002    5.659197268121672E-012
  1.230000000000000E-002    5.998355048554503E-012
  1.240000000000000E-002    5.893269082874526E-012
  1.250000000000000E-002    5.317986556378814E-012
  1.260000000000000E-002    4.284904441469044E-012
  1.270000000000000E-002    2.846861641197417E-012
  1.280000000000000E-002    1.095690298490554E-012
  1.290000000000000E-002   -8.429538121058427E-013
  1.300000000000000E-002   -2.818318037743844E-012
  1.310000000000000E-002   -4.666319377940999E-012
  1.320000000000000E-002   -6.223484481352406E-012
  1.330000000000000E-002   -7.341919659334283E-012
  1.340000000000000E-002   -7.903957054569673E-012
  1.350000000000000E-002   -7.835052727710440E-012
  1.360000000000000E-002   -7.113548214271672E-012
  1.370000000000000E-002   -5.776107703762709E-012
  1.380000000000000E-002   -3.917957254796972E-012
  1.390000000000000E-002   -1.687511737741785E-012
  1.400000000000000E-002    7.245251750597678E-013
  1.410000000000000E-002    3.100941659890482E-012
  1.420000000000000E-002    5.217483944958726E-012
  1.430000000000000E-002    6.864363200243008E-012
  1.440000000000000E-002    7.867835032780656E-012
  1.450000000000000E-002    8.109666046990775E-012
  1.460000000000000E-002    7.542409088720966E-012
  1.470000000000000E-002    6.198616529588123E-012
  1.480000000000000E-002    4.192597698837903E-012
  1.490000000000000E-002    1.713978699669928E-012
  1.500000000000000E-002   -9.869279456169381E-013
  1.510000000000000E-002   -3.621064197402288E-012
  1.520000000000000E-002   -5.888230809018248E-012
  1.530000000000000E-002   -7.507944321015167E-012
  1.540000000000000E-002   -8.250662400320718E-012
  1.550000000000000E-002   -7.966160459772434E-012
  1.560000000000000E-002   -6.605927192828672E-012
  1.570000000000000E-002   -4.236749451499118E-012
  1.580000000000000E-002   -1.043371338843556E-012
  1.590000000000000E-002    2.680976275196662E-012
  1.600000000000000E-002    6.556218686557426E-012
  1.610000000000000E-002    1.014805125784586E-011
  1.620000000000000E-002    1.300910476040613E-011
  1.630000000000000E-002    1.472515596088946E-011
  1.640000000000000E-002    1.496205894792272E-011
  1.650000000000000E-002    1.350864788671557E-011
  1.660000000000000E-002    1.031084022485715E-011
  1.670000000000000E-002    5.492709613471042E-012
  1.680000000000000E-002   -6.387983654432325E-013
  1.690000000000000E-002   -7.607394266103539E-012
  1.700000000000000E-002   -1.479945009987906E-011
  1.710000000000000E-002   -2.151286619887668E-011
  1.720000000000000E-002   -2.701928993222446E-011
  1.730000000000000E-002   -3.063463140177792E-011
  1.740000000000000E-002   -3.179147261666044E-011
  1.750000000000000E-002   -3.010629446227846E-011
  1.760000000000000E-002   -2.543435945390885E-011
  1.770000000000000E-002   -1.790576789770356E-011
  1.780000000000000E-002   -7.937490381977640E-012
  1.790000000000000E-002    3.781747781324291E-012
  1.800000000000000E-002    1.633452324407535E-011
  1.810000000000000E-002    2.864370078137220E-011
  1.820000000000000E-002    3.956259635198886E-011
  1.830000000000000E-002    4.797924711697017E-011
  1.840000000000000E-002    5.292556566048671E-011
  1.850000000000000E-002    5.368107965193005E-011
  1.860000000000000E-002    4.986075295868425E-011
  1.870000000000000E-002    4.147699307186091E-011