 -4.000000000000000E-002    0.000000000000000E+000
 -3.990000000000000E-002    1.007191278061412E-008
 -3.980000000000000E-002    2.982403975452689E-008
 -3.970000000000000E-002    5.790133794212134E-008
 -3.960000000000000E-002    9.218144608393768E-008
 -3.950000000000000E-002    1.300599930063833E-007
 -3.940000000000000E-002    1.687758110663432E-007
 -3.930000000000000E-002    2.057210432044224E-007
 -3.920000000000000E-002    2.386843640949610E-007
 -3.910000000000000E-002    2.659879556823476E-007
 -3.900000000000000E-002    2.864972817516868E-007
 -3.890000000000000E-002    2.995049293345274E-007
 -3.880000000000000E-002    3.045122845171336E-007
 -3.870000000000000E-002    3.009513014787309E-007
 -3.860000000000000E-002    2.879002861388694E-007
 -3.850000000000000E-002    2.638511202504044E-007
 -3.840000000000000E-002    2.265787498986271E-007
 -3.830000000000000E-002    1.731489098054756E-007
 -3.820000000000000E-002    1.000778911664358E-007
 -3.810000000000000E-002    3.633803869114442E-009
 -3.800000000000000E-002   -1.197544989321905E-007
 -3.790000000000000E-002   -2.730375973135067E-007
 -3.780000000000000E-002   -4.580996138163104E-007
 -3.770000000000000E-002   -6.753950786345160E-007
 -3.760000000000000E-002   -9.237301009791680E-007
 -3.750000000000000E-002   -1.200226859809875E-006
 -3.740000000000000E-002   -1.500489739505572E-006
 -3.730000000000000E-002   -1.818956659720429E-006
 -3.720000000000000E-002   -2.149393978765525E-006
 -3.710000000000000E-002   -2.485469358599523E-006
 -3.700000000000000E-002   -2.821317798036923E-006
 -3.690000000000000E-002   -3.152019654145549E-006
 -3.680000000000000E-002   -3.473911978730592E-006
 -3.670000000000000E-002   -3.784679689933324E-006
 -3.660000000000000E-002   -4.083204444319178E-006
 -3.650000000000000E-002   -4.369178683092815E-006
 -3.640000000000000E-002   -4.642535814272507E-006
 -3.630000000000000E-002   -4.902771746347997E-006
 -3.620000000000000E-002   -5.148258495989797E-006
 -3.610000000000000E-002   -5.375652599489839E-006
 -3.600000000000000E-002   -5.579503221467949E-006
 -3.590000000000000E-002   -5.752128917217269E-006
 -3.580000000000000E-002   -5.883809633767622E-006
 -3.570000000000000E-002   -5.963295030330307E-006
 -3.560000000000000E-002   -5.978581058008661E-006
 -3.550000000000000E-002   -5.917871098325212E-006
 -3.540000000000000E-002   -5.770607344746731E-006
 -3.530000000000000E-002   -5.528438275437656E-006
 -3.520000000000000E-002   -5.185993129077300E-006
 -3.510000000000000E-002   -4.741350875522012E-006
 -3.500000000000000E-002   -4.196129070970990E-006
 -3.490000000000000E-002   -3.555163936604407E-006
 -3.480000000000000E-002   -2.825806707357803E-006
 -3.470000000000000E-002   -2.016911504269831E-006
 -3.460000000000000E-002   -1.137639080299024E-006
 -3.450000000000000E-002   -1.962238650609070E-007
 -3.440000000000000E-002    8.011353692719856E-007
 -3.430000000000000E-002    1.851110220717648E-006
 -3.420000000000000E-002    2.953687179559500E-006
 -3.410000000000000E-002    4.112151764362841E-006
 -3.400000000000000E-002    5.332601314043742E-006
 -3.390000000000000E-002    6.623041369288606E-006
 -3.380000000000000E-002    7.992174461901633E-006
 -3.370000000000000E-002    9.448036901916234E-006
 -3.360000000000000E-002    1.099666501821899E-005
 -3.350000000000000E-002    1.264097272694297E-005
 -3.340000000000000E-002    1.438000692137773E-005
 -3.330000000000000E-002    1.620869013018648E-005
 -3.320000000000000E-002    1.811811418302015E-005
 -3.310000000000000E-002    2.009636651658995E-005
 -3.300000000000000E-002    2.212980671761445E-005
 -3.290000000000000E-002    2.420464676016294E-005
 -3.280000000000000E-002    2.630864747996452E-005
 -3.270000000000000E-002    2.843270301082300E-005
 -3.260000000000000E-002    3.057214178903549E-005
 -3.250000000000000E-002    3.272753088487701E-005
 -3.240000000000000E-002    3.490489863376437E-005
 -3.230000000000000E-002    3.711532776006936E-005
 -3.220000000000000E-002    3.937393922368849E-005
 -3.210000000000000E-002    4.169840309817946E-005
 -3.200000000000000E-002    4.410714244757965E-005
 -3.190000000000000E-002    4.661745945337206E-005
 -3.180000000000000E-002    4.924381616654993E-005
 -3.170000000000000E-002    5.199649290523414E-005
 -3.160000000000000E-002    5.488080437695437E-005
 -3.150000000000000E-002    5.789698310986781E-005
 -3.140000000000000E-002    6.104076109337406E-005
 -3.130000000000000E-002    6.430458316786216E-005
 -3.120000000000000E-002    6.767931082341395E-005
 -3.110000000000000E-002    7.115622634509292E-005
 -3.100000000000000E-002    7.472905489929306E-005
 -3.090000000000000E-002    7.839578236121406E-005
 -3.080000000000000E-002    8.216003049369646E-005
 -3.070000000000000E-002    8.603179858688392E-005
 -3.060000000000000E-002    9.002747693573259E-005
 -3.050000000000000E-002    9.416916051935180E-005
 -3.040000000000000E-002    9.848326164834199E-005
 -3.030000000000000E-002    1.029986998884140E-004
 -3.020000000000000E-002    1.077448048556036E-004
 -3.010000000000000E-002    1.127492764696923E-004
 -3.000000000000000E-002    1.180364209874211E-004
 -2.990000000000000E-002    1.236258924581454E-004
 -2.980000000000000E-002    1.295321776000644E-004
 -2.970000000000000E-002    1.357648130063554E-004
 -2.960000000000000E-002    1.423293981085435E-004
 -2.950000000000000E-002    1.492292427070886E-004
 -2.940000000000000E-002    1.564674779726770E-004
 -2.930000000000000E-002    1.640493442217775E-004
 -2.920000000000000E-002    1.719843944381237E-004
 -2.910000000000000E-002    1.802883182130608E-004
 -2.900000000000000E-002    1.889841645196174E-004
 -2.890000000000000E-002    1.981027487874413E-004
 -2.880000000000000E-002    2.076822467671922E-004
 -2.870000000000000E-002    2.177669914254617E-004
 -2.860000000000000E-002    2.284055569442042E-004
 -2.850000000000000E-002    2.396484263236208E-004
 -2.840000000000000E-002    2.515455130944687E-004
 -2.830000000000000E-002    2.641437564862357E-004
 -2.820000000000000E-002    2.774852777673916E-004
 -2.810000000000000E-002    2.916060874531105E-004
 -2.800000000000000E-002    3.065357070255663E-004
 -2.790000000000000E-002    3.222976439197647E-004
 -2.780000000000000E-002    3.389107421588061E-004
 -2.770000000000000E-002    3.563911821176796E-004
 -2.760000000000000E-002    3.747549539996284E-004
 -2.750000000000000E-002    3.940203616381176E-004
 -2.740000000000000E-002    4.142105011051161E-004
 -2.730000000000000E-002    4.353551646679082E-004
 -2.720000000000000E-002    4.574919803961785E-004
 -2.710000000000000E-002    4.806667585084662E-004
 -2.700000000000000E-002    5.049328203522200E-004
 -2.690000000000000E-002    5.303496536727161E-004
 -2.680000000000000E-002    5.569806155075968E-004
 -2.670000000000000E-002    5.848904836688135E-004
 -2.660000000000000E-002    6.141427214935223E-004
 -2.650000000000000E-002    6.447970720772733E-004
 -2.640000000000000E-002    6.769075448934901E-004
 -2.630000000000000E-002    7.105212985861559E-004
 -2.620000000000000E-002    7.456784083332251E-004
 -2.610000000000000E-002    7.824124607496131E-004
 -2.600000000000000E-002    8.207522267921147E-004
 -2.590000000000000E-002    8.607237542039732E-004
 -2.580000000000000E-002    9.023531505958401E-004
 -2.570000000000000E-002    9.456691920195422E-004
 -2.560000000000000E-002    9.907059075585074E-004
 -2.550000000000000E-002    1.037504360805561E-003
 -2.540000000000000E-002    1.086113954675490E-003
 -2.530000000000000E-002    1.136592518000711E-003
 -2.520000000000000E-002    1.189005508363343E-003
 -2.510000000000000E-002    1.243424400891868E-003
 -2.500000000000000E-002    1.299924166134533E-003
 -2.490000000000000E-002    1.358580540819024E-003
 -2.480000000000000E-002    1.419467111256594E-003
 -2.470000000000000E-002    1.482652444014791E-003
 -2.460000000000000E-002    1.548197884209558E-003
 -2.450000000000000E-002    1.616156282281458E-003
 -2.440000000000000E-002    1.686571257598147E-003
 -2.430000000000000E-002    1.759477679685337E-003
 -2.420000000000000E-002    1.834902891678006E-003
 -2.410000000000000E-002    1.912868737907427E-003
 -2.400000000000000E-002    1.993393991166091E-003
 -2.390000000000000E-002    2.076496621600481E-003
 -2.380000000000000E-002    2.162196370369957E-003
 -2.370000000000000E-002    2.250516314565861E-003
 -2.360000000000000E-002    2.341483808612812E-003
 -2.350000000000000E-002    2.435130893314138E-003
 -2.340000000000000E-002    2.531492950916269E-003
 -2.330000000000000E-002    2.630607352850080E-003
 -2.320000000000000E-002    2.732510708165146E-003
 -2.310000000000000E-002    2.837236034217810E-003
 -2.300000000000000E-002    2.944809680061248E-003
 -2.290000000000000E-002    3.055248104848362E-003
 -2.280000000000000E-002    3.168555660761414E-003
 -2.270000000000000E-002    3.284722224695501E-003
 -2.260000000000000E-002    3.403722917194906E-003
 -2.250000000000000E-002    3.525517211078241E-003
 -2.240000000000000E-002    3.650049719387673E-003
 -2.230000000000000E-002    3.777251636605455E-003
 -2.220000000000000E-002    3.907042770137831E-003
 -2.210000000000000E-002    4.039333294397743E-003
 -2.200000000000000E-002    4.174025432361106E-003
 -2.190000000000000E-002    4.311015132621159E-003
 -2.180000000000000E-002    4.450192852208266E-003
 -2.170000000000000E-002    4.591443185314929E-003
 -2.160000000000000E-002    4.734644621412383E-003
 -2.150000000000000E-002    4.879666926280313E-003
 -2.140000000000000E-002    5.026370022278995E-003
 -2.130000000000000E-002    5.174599025693297E-003
 -2.120000000000000E-002    5.324183048848130E-003
 -2.110000000000000E-002    5.474930429351190E-003
 -2.100000000000000E-002    5.626625864792377E-003
 -2.090000000000000E-002    5.779028321873101E-003
 -2.080000000000000E-002    5.931868659817801E-003
 -2.070000000000000E-002    6.084848648128926E-003
 -2.060000000000000E-002    6.237640363160701E-003
 -2.050000000000000E-002    6.389885998953494E-003
 -2.040000000000000E-002    6.541199153479071E-003
 -2.030000000000000E-002    6.691165365030862E-003
 -2.020000000000000E-002    6.839342769751650E-003
 -2.010000000000000E-002    6.985263732953492E-003
 -2.000000000000000E-002    7.128434556501679E-003
 -1.990000000000000E-002    7.268335815551174E-003
 -1.980000000000000E-002    7.404420448375588E-003
 -1.970000000000000E-002    7.536113435949433E-003
 -1.960000000000000E-002    7.662808622037143E-003
 -1.950000000000000E-002    7.783865689765384E-003
 -1.940000000000000E-002    7.898607409649821E-003
 -1.930000000000000E-002    8.006315989498639E-003
 -1.920000000000000E-002    8.106229053505097E-003
 -1.910000000000000E-002    8.197536782131459E-003
 -1.900000000000000E-002    8.279378660601218E-003
 -1.890000000000000E-002    8.350842215560849E-003
 -1.880000000000000E-002    8.410959794039134E-003
 -1.870000000000000E-002    8.458707902321705E-003
 -1.860000000000000E-002    8.493007328001108E-003
 -1.850000000000000E-002    8.512722742847771E-003
 -1.840000000000000E-002    8.516661652168363E-003
 -1.830000000000000E-002    8.503575703530884E-003
 -1.820000000000000E-002    8.472161124429721E-003
 -1.810000000000000E-002    8.421058086925441E-003
 -1.800000000000000E-002    8.348849507076251E-003
 -1.790000000000000E-002    8.254059917258383E-003
 -1.780000000000000E-002    8.135156209064329E-003
 -1.770000000000000E-002    7.990542635840477E-003
 -1.760000000000000E-002    7.818558280438257E-003
 -1.750000000000000E-002    7.617474803976836E-003
 -1.740000000000000E-002    7.385491991379368E-003
 -1.730000000000000E-002    7.120735573441712E-003
 -1.720000000000000E-002    6.821252869591508E-003
 -1.710000000000000E-002    6.485010795557319E-003
 -1.700000000000000E-002    6.109888836471206E-003
 -1.690000000000000E-002    5.693684411469445E-003
 -1.680000000000000E-002    5.234106529926745E-003
 -1.670000000000000E-002    4.728772291409097E-003
 -1.660000000000000E-002    4.175213414306312E-003
 -1.650000000000000E-002    3.570872175541073E-003
 -1.640000000000000E-002    2.913101274427394E-003
 -1.630000000000000E-002    2.199164782032735E-003
 -1.620000000000000E-002    1.426239901482195E-003
 -1.610000000000000E-002    5.914154517156819E-004
 -1.600000000000000E-002   -3.083048101131256E-004
 -1.590000000000000E-002   -1.276008675062962E-003
 -1.580000000000000E-002   -2.314872526173646E-003
 -1.570000000000000E-002   -3.428164052849614E-003
 -1.560000000000000E-002   -4.619244920627355E-003
 -1.550000000000000E-002   -5.891573116996902E-003
 -1.540000000000000E-002   -7.248705004709368E-003
 -1.530000000000000E-002   -8.694298653267006E-003
 -1.520000000000000E-002   -1.023211786085342E-002
 -1.510000000000000E-002   -1.186602596895524E-002
 -1.500000000000000E-002   -1.359999787562421E-002
 -1.490000000000000E-002   -1.543811157254373E-002
 -1.480000000000000E-002   -1.738455858470668E-002
 -1.470000000000000E-002   -1.944362562360483E-002
 -1.460000000000000E-002   -2.161970558525087E-002
 -1.450000000000000E-002   -2.391729717590402E-002
 -1.440000000000000E-002   -2.634099071142312E-002
 -1.430000000000000E-002   -2.889546558555425E-002
 -1.420000000000000E-002   -3.158550214734129E-002
 -1.410000000000000E-002   -3.441596925433755E-002
 -1.400000000000000E-002   -3.739181698827458E-002
 -1.390000000000000E-002   -4.051808351430614E-002
 -1.380000000000000E-002   -4.379989281089882E-002
 -1.370000000000000E-002   -4.724243699981254E-002
 -1.360000000000000E-002   -5.085100644979489E-002
 -1.350000000000000E-002   -5.463097409995621E-002
 -1.340000000000000E-002   -5.858778354978501E-002
 -1.330000000000000E-002   -6.272697365858620E-002
 -1.320000000000000E-002   -6.705415152750771E-002
 -1.310000000000000E-002   -7.157501084712195E-002
 -1.300000000000000E-002   -7.629531874908982E-002
 -1.290000000000000E-002   -8.122091209792867E-002
 -1.280000000000000E-002   -8.635768830433982E-002
 -1.270000000000000E-002   -9.171160955052937E-002
 -1.260000000000000E-002   -9.728869552876358E-002
 -1.250000000000000E-002   -0.103095003266128     
 -1.240000000000000E-002   -0.109136609018853     
 -1.230000000000000E-002   -0.115419649322525     
 -1.220000000000000E-002   -0.121950264355084     
 -1.210000000000000E-002   -0.128734598891001     
 -1.200000000000000E-002   -0.135778830216553     
 -1.190000000000000E-002   -0.143089120608721     
 -1.180000000000000E-002   -0.150671620127322     
 -1.170000000000000E-002   -0.158532497039415     
 -1.160000000000000E-002   -0.166677871605025     
 -1.150000000000000E-002   -0.175113873233649     
 -1.140000000000000E-002   -0.183846627146207     
 -1.130000000000000E-002   -0.192882174341969     
 -1.120000000000000E-002   -0.202226540670422     
 -1.110000000000000E-002   -0.211885724145115     
 -1.100000000000000E-002   -0.221865644716967     
 -1.090000000000000E-002   -0.232172172820367     
 -1.080000000000000E-002   -0.242811104811168     
 -1.070000000000000E-002   -0.253788102188880     
 -1.060000000000000E-002   -0.265108774516514     
 -1.050000000000000E-002   -0.276778564762416     
 -1.040000000000000E-002   -0.288802810631873     
 -1.030000000000000E-002   -0.301186699349008     
 -1.020000000000000E-002   -0.313935252859711     
 -1.010000000000000E-002   -0.327053355873376     
 -1.000000000000000E-002   -0.340545670120719     
 -9.899999999999999E-003   -0.354416666683208     
 -9.800000000000000E-003   -0.368670670414336     
 -9.699999999999999E-003   -0.383311734045755     
 -9.599999999999999E-003   -0.398343761656001     
 -9.500000000000000E-003   -0.413770343334607     
 -9.399999999999999E-003   -0.429594905957005     
 -9.299999999999999E-003   -0.445820547954099     
 -9.200000000000000E-003   -0.462450191765440     
 -9.099999999999999E-003   -0.479486400900446     
 -8.999999999999999E-003   -0.496931517317964     
 -8.900000000000000E-003   -0.514787519210720     
 -8.799999999999999E-003   -0.533056073700606     
 -8.699999999999999E-003   -0.551738503791337     
 -8.600000000000000E-003   -0.570835813959961     
 -8.499999999999999E-003   -0.590348530735490     
 -8.399999999999999E-003   -0.610276861299772     
 -8.300000000000000E-003   -0.630620663050719     
 -8.199999999999999E-003   -0.651379270401832     
 -8.100000000000000E-003   -0.672551598673930     
 -8.000000000000000E-003   -0.694136229695429     
 -7.899999999999999E-003   -0.716131124739253     
 -7.800000000000000E-003   -0.738533941039380     
 -7.699999999999999E-003   -0.761341814156747     
 -7.599999999999999E-003   -0.784551336306588     
 -7.499999999999999E-003   -0.808158690061105     
 -7.399999999999999E-003   -0.832159576446964     
 -7.299999999999999E-003   -0.856549027221741     
 -7.199999999999999E-003   -0.881321742533695     
 -7.100000000000000E-003   -0.906471728041879     
 -6.999999999999999E-003   -0.931992529213672     
 -6.899999999999999E-003   -0.957877021301584     
 -6.800000000000000E-003   -0.984117636352892     
 -6.699999999999999E-003    -1.01070609616550     
 -6.599999999999999E-003    -1.03763363495601     
 -6.499999999999999E-003    -1.06489076251527     
 -6.399999999999999E-003    -1.09246751188088     
 -6.299999999999999E-003    -1.12035302904381     
 -6.199999999999999E-003    -1.14853611966522     
 -6.100000000000000E-003    -1.17700481929060     
 -5.999999999999999E-003    -1.20574644608299     
 -5.899999999999999E-003    -1.23474788026341     
 -5.800000000000000E-003    -1.26399512646889     
 -5.699999999999999E-003    -1.29347376966679     
 -5.599999999999999E-003    -1.32316849158153     
 -5.499999999999999E-003    -1.35306364857687     
 -5.399999999999999E-003    -1.38314273700586     
 -5.299999999999999E-003    -1.41338850893998     
 -5.199999999999999E-003    -1.44378318555905     
 -5.099999999999999E-003    -1.47430840552056     
 -4.999999999999999E-003    -1.50494510637170     
 -4.899999999999999E-003    -1.53567351778254     
 -4.799999999999999E-003    -1.56647326273301     
 -4.699999999999999E-003    -1.59732340419086     
 -4.599999999999999E-003    -1.62820212382320     
 -4.499999999999999E-003    -1.65908720974242     
 -4.399999999999999E-003    -1.68995582676125     
 -4.299999999999999E-003    -1.72078434258591     
 -4.199999999999999E-003    -1.75154849413268     
 -4.099999999999999E-003    -1.78222377016395     
 -3.999999999999999E-003    -1.81278481613995     
 -3.899999999999999E-003    -1.84320568689213     
 -3.799999999999999E-003    -1.87346009897798     
 -3.699999999999999E-003    -1.90352102794247     
 -3.599999999999999E-003    -1.93336113361937     
 -3.499999999999999E-003    -1.96295243914407     
 -3.399999999999999E-003    -1.99226651093132     
 -3.299999999999999E-003    -2.02127456576819     
 -3.199999999999999E-003    -2.04994710472888     
 -3.099999999999999E-003    -2.07825462116202     
 -2.999999999999999E-003    -2.10616686573441     
 -2.899999999999999E-003    -2.13365335347542     
 -2.799999999999999E-003    -2.16068333515841     
 -2.699999999999999E-003    -2.18722570782572     
 -2.599999999999999E-003    -2.21324894512097     
 -2.499999999999999E-003    -2.23872140179036     
 -2.399999999999999E-003    -2.26361116364741     
 -2.299999999999999E-003    -2.28788603511040     
 -2.199999999999999E-003    -2.31151352309896     
 -2.099999999999999E-003    -2.33446135023767     
 -1.999999999999999E-003    -2.35669689948535     
 -1.899999999999999E-003    -2.37818743317139     
 -1.799999999999999E-003    -2.39890042331826     
 -1.699999999999999E-003    -2.41880299994615     
 -1.599999999999999E-003    -2.43786245254753     
 -1.499999999999999E-003    -2.45604633112467     
 -1.399999999999999E-003    -2.47332215810031     
 -1.299999999999999E-003    -2.48965755109305     
 -1.199999999999999E-003    -2.50502045351197     
 -1.099999999999999E-003    -2.51937893404351     
 -9.999999999999989E-004    -2.53270129409405     
 -8.999999999999990E-004    -2.54495622325637     
 -7.999999999999990E-004    -2.55611259540549     
 -6.999999999999989E-004    -2.56613986700632     
 -5.999999999999990E-004    -2.57500801810944     
 -4.999999999999989E-004    -2.58268692580490     
 -3.999999999999989E-004    -2.58914743771487     
 -2.999999999999989E-004    -2.59436105579488     
 -1.999999999999989E-004    -2.59829939804473     
 -9.999999999999892E-005    -2.60093523911101     
  1.084202172485504E-018    -2.60224156064393     
  1.000000000000011E-004    -2.60219232084808     
  2.000000000000011E-004    -2.60076197692103     
  3.000000000000011E-004    -2.59792624228559     
  4.000000000000011E-004    -2.59366126200070     
  5.000000000000011E-004    -2.58794443441232     
  6.000000000000011E-004    -2.58075373931663     
  7.000000000000011E-004    -2.57206831133282     
  8.000000000000011E-004    -2.56186828711738     
  9.000000000000012E-004    -2.55013485035751     
  1.000000000000001E-003    -2.53685015935885     
  1.100000000000001E-003    -2.52199750413620     
  1.200000000000001E-003    -2.50556159252642     
  1.300000000000001E-003    -2.48752784493090     
  1.400000000000001E-003    -2.46788311875177     
  1.500000000000001E-003    -2.44661544984764     
  1.600000000000001E-003    -2.42371438299239     
  1.700000000000001E-003    -2.39917065347774     
  1.800000000000001E-003    -2.37297606738779     
  1.900000000000001E-003    -2.34512425180087     
  2.000000000000001E-003    -2.31560996588984     
  2.100000000000001E-003    -2.28442938678266     
  2.200000000000001E-003    -2.25158047600509     
  2.300000000000001E-003    -2.21706228483471     
  2.400000000000001E-003    -2.18087555880507     
  2.500000000000001E-003    -2.14302248058390     
  2.600000000000001E-003    -2.10350685120238     
  2.700000000000001E-003    -2.06233402232586     
  2.800000000000001E-003    -2.01951090524990     
  2.900000000000001E-003    -1.97504596288352     
  3.000000000000001E-003    -1.92894925771461     
  3.100000000000001E-003    -1.88123245990820     
  3.200000000000001E-003    -1.83190873463898     
  3.300000000000001E-003    -1.78099310274464     
  3.400000000000001E-003    -1.72850197873973     
  3.500000000000001E-003    -1.67445341869641     
  3.600000000000001E-003    -1.61886717755008     
  3.700000000000001E-003    -1.56176455747971     
  3.800000000000001E-003    -1.50316841367725     
  3.900000000000001E-003    -1.44310338509520     
  4.000000000000001E-003    -1.38159556077674     
  4.100000000000001E-003    -1.31867271064997     
  4.200000000000001E-003    -1.25436412390608     
  4.300000000000001E-003    -1.18870070706125     
  4.400000000000001E-003    -1.12171476383803     
  4.500000000000001E-003    -1.05344035321815     
  4.600000000000002E-003   -0.983912877953087     
  4.700000000000001E-003   -0.913169254376852     
  4.800000000000001E-003   -0.841247839346240     
  4.900000000000002E-003   -0.768188425262262     
  5.000000000000001E-003   -0.694032123429195     
  5.100000000000001E-003   -0.618821484826080     
  5.200000000000001E-003   -0.542600303869071     
  5.300000000000002E-003   -0.465413711632175     
  5.400000000000001E-003   -0.387308065333954     
  5.500000000000001E-003   -0.308330927942983     
  5.600000000000002E-003   -0.228531041355881     
  5.700000000000001E-003   -0.147958273912296     
  5.800000000000001E-003   -6.666358533627481E-002
  5.900000000000002E-003    1.530109352912776E-002
  6.000000000000001E-003    9.788275665463705E-002
  6.100000000000001E-003    0.181027421824908     
  6.200000000000002E-003    0.264680291883182     
  6.300000000000002E-003    0.348785760111171     
  6.400000000000001E-003    0.433287385444501     
  6.500000000000001E-003    0.518127969767113     
  6.600000000000002E-003    0.603249599671731     
  6.700000000000001E-003    0.688594008929261     
  6.800000000000001E-003    0.774102128307345     
  6.900000000000002E-003    0.859714505331926     
  7.000000000000001E-003    0.945371184174296     
  7.100000000000001E-003     1.03101200468889     
  7.200000000000002E-003     1.11657641889814     
  7.300000000000002E-003     1.20200366013589     
  7.400000000000001E-003     1.28723267321031     
  7.500000000000001E-003     1.37220254317561     
  7.600000000000002E-003     1.45685210843505     
  7.700000000000001E-003     1.54112043358461     
  7.800000000000001E-003     1.62494644351592     
  7.900000000000001E-003     1.70826910633298     
  8.000000000000002E-003     1.79102796743956     
  8.100000000000001E-003     1.87316258586928     
  8.200000000000001E-003     1.95461313113017     
  8.300000000000002E-003     2.03531977059258     
  8.400000000000001E-003     2.11522346052549     
  8.500000000000002E-003     2.19426546561111     
  8.600000000000002E-003     2.27238789833018     
  8.700000000000001E-003     2.34953337231728     
  8.800000000000002E-003     2.42564539518946     
  8.900000000000002E-003     2.50066824188101     
  9.000000000000001E-003     2.57454676163799     
  9.100000000000002E-003     2.64722734224735     
  9.200000000000002E-003     2.71865658046888     
  9.300000000000001E-003     2.78878288797549     
  9.400000000000002E-003     2.85755535970107     
  9.500000000000001E-003     2.92492416076566     
  9.600000000000001E-003     2.99084083524906     
  9.700000000000002E-003     3.05525829179913     
  9.800000000000001E-003     3.11813043319738     
  9.900000000000001E-003     3.17941263678550     
  1.000000000000000E-002     3.23906170004733     
  1.010000000000000E-002     3.29703581078116     
  1.020000000000000E-002     3.35329490394223     
  1.030000000000000E-002     3.40780005725106     
  1.040000000000000E-002     3.46051405296345     
  1.050000000000000E-002     3.51140156681703     
  1.060000000000000E-002     3.56042852278708     
  1.070000000000000E-002     3.60756263715961     
  1.080000000000000E-002     3.65277385846155     
  1.090000000000000E-002     3.69603327254327     
  1.100000000000000E-002     3.73731392822846     
  1.110000000000000E-002     3.77659071718374     
  1.120000000000000E-002     3.81384029178184     
  1.130000000000000E-002     3.84904139790444     
  1.140000000000000E-002     3.88217460823310     
  1.150000000000000E-002     3.91322193746080     
  1.160000000000000E-002     3.94216799767763     
  1.170000000000000E-002     3.96899844998647     
  1.180000000000000E-002     3.99370165040622     
  1.190000000000000E-002     4.01626732713937     
  1.200000000000000E-002     4.03668767474158     
  1.210000000000000E-002     4.05495629333969     
  1.220000000000000E-002     4.07106908616840     
  1.230000000000000E-002     4.08502364640197     
  1.240000000000000E-002     4.09681974930898     
  1.250000000000000E-002     4.10645843747249     
  1.260000000000000E-002     4.11394347555542     
  1.270000000000000E-002     4.11927999990838     
  1.280000000000000E-002     4.12247545761003     
  1.290000000000000E-002     4.12353884667659     
  1.300000000000000E-002     4.12248103723682     
  1.310000000000000E-002     4.11931469235189     
  1.320000000000000E-002     4.11405439387359     
  1.330000000000000E-002     4.10671670116287     
  1.340000000000000E-002     4.09731977399680     
  1.350000000000000E-002     4.08588323145661     
  1.360000000000000E-002     4.07242848522472     
  1.370000000000000E-002     4.05697859168247     
  1.380000000000000E-002     4.03955862657914     
  1.390000000000000E-002     4.02019455455886     
  1.400000000000000E-002     3.99891442602364     
  1.410000000000000E-002     3.97574729215354     
  1.420000000000000E-002     3.95072410327582     
  1.430000000000000E-002     3.92387707564450     
  1.440000000000000E-002     3.89523971411656     
  1.450000000000000E-002     3.86484688482983     
  1.460000000000000E-002     3.83273457302138     
  1.470000000000000E-002     3.79894058020929     
  1.480000000000000E-002     3.76350332415540     
  1.490000000000000E-002     3.72646251084838     
  1.500000000000000E-002     3.68785898156349     
  1.510000000000000E-002     3.64773455221802     
  1.520000000000000E-002     3.60613202267737     
  1.530000000000000E-002     3.56309512429641     
  1.540000000000000E-002     3.51866850292688     
  1.550000000000000E-002     3.47289739578384     
  1.560000000000000E-002     3.42582796087907     
  1.570000000000000E-002     3.37750690603747     
  1.580000000000000E-002     3.32798154697740     
  1.590000000000000E-002     3.27730003232938     
  1.600000000000000E-002     3.22551069523941     
  1.610000000000000E-002     3.17266243903445     
  1.620000000000000E-002     3.11880479007565     
  1.630000000000000E-002     3.06398739232566     
  1.640000000000000E-002     3.00826023197284     
  1.650000000000000E-002     2.95167356875950     
  1.660000000000000E-002     2.89427779725976     
  1.670000000000000E-002     2.83612336548188     
  1.680000000000000E-002     2.77726107827531     
  1.690000000000000E-002     2.71774165085229     
  1.700000000000000E-002     2.65761545451392     
  1.710000000000000E-002     2.59693321076893     
  1.720000000000000E-002     2.53574502452584     
  1.730000000000000E-002     2.47410119192389     
  1.740000000000000E-002     2.41205142362431     
  1.750000000000000E-002     2.34964549474502     
  1.760000000000000E-002     2.28693252509457     
  1.770000000000000E-002     2.22396126038854     
  1.780000000000000E-002     2.16078019622967     
  1.790000000000000E-002     2.09743717233327     
  1.800000000000000E-002     2.03397964169484     
  1.810000000000000E-002     1.97045422314810     
  1.820000000000000E-002     1.90690721120202     
  1.830000000000000E-002     1.84338399207373     
  1.840000000000000E-002     1.77992946241409     
  1.850000000000000E-002     1.71658761136669     
  1.860000000000000E-002     1.65340178495757     
  1.870000000000000E-002     1.59041447316547     