 -4.000000000000000E-002    0.000000000000000E+000
 -3.990000000000000E-002    0.000000000000000E+000
 -3.980000000000000E-002    0.000000000000000E+000
 -3.970000000000000E-002    0.000000000000000E+000
 -3.960000000000000E-002    0.000000000000000E+000
 -3.950000000000000E-002    0.000000000000000E+000
 -3.940000000000000E-002    0.000000000000000E+000
 -3.930000000000000E-002    0.000000000000000E+000
 -3.920000000000000E-002    0.000000000000000E+000
 -3.910000000000000E-002    0.000000000000000E+000
 -3.900000000000000E-002    1.753421303016842E-035
 -3.890000000000000E-002    3.344889787612218E-034
 -3.880000000000000E-002    3.292850013582533E-033
 -3.870000000000000E-002    2.220229621033504E-032
 -3.860000000000000E-002    1.147240961728211E-031
 -3.850000000000000E-002    4.812438503661600E-031
 -3.840000000000000E-002    1.690796594793337E-030
 -3.830000000000000E-002    5.042726122371114E-030
 -3.820000000000000E-002    1.269643338414587E-029
 -3.810000000000000E-002    2.588969759827043E-029
 -3.800000000000000E-002    3.603768022513707E-029
 -3.790000000000000E-002   -4.541364000110901E-030
 -3.780000000000000E-002   -2.615722842059256E-028
 -3.770000000000000E-002   -1.204966624143632E-027
 -3.760000000000000E-002   -4.003518687460747E-027
 -3.750000000000000E-002   -1.128572310636901E-026
 -3.740000000000000E-002   -2.847946368848939E-026
 -3.730000000000000E-002   -6.595245979159350E-026
 -3.720000000000000E-002   -1.420580717030373E-025
 -3.710000000000000E-002   -2.868084315468312E-025
 -3.700000000000000E-002   -5.450285344789589E-025
 -3.690000000000000E-002   -9.762552047882621E-025
 -3.680000000000000E-002   -1.646037119854758E-024
 -3.670000000000000E-002   -2.599582319819379E-024
 -3.660000000000000E-002   -3.804030184196385E-024
 -3.650000000000000E-002   -5.040869899763304E-024
 -3.640000000000000E-002   -5.727009996024875E-024
 -3.630000000000000E-002   -4.644997068386313E-024
 -3.620000000000000E-002    4.251437638577832E-025
 -3.610000000000000E-002    1.315189020332189E-023
 -3.600000000000000E-002    3.910313934707592E-023
 -3.590000000000000E-002    8.604717366632846E-023
 -3.580000000000000E-002    1.638342164128974E-022
 -3.570000000000000E-002    2.834447609968652E-022
 -3.560000000000000E-002    4.546410008942680E-022
 -3.550000000000000E-002    6.815348244143650E-022
 -3.540000000000000E-002    9.553487972016660E-022
 -3.530000000000000E-002    1.243799254762538E-021
 -3.520000000000000E-002    1.476955930850997E-021
 -3.510000000000000E-002    1.530262745033161E-021
 -3.500000000000000E-002    1.206749299859630E-021
 -3.490000000000000E-002    2.223177675736330E-022
 -3.480000000000000E-002   -1.799633293700931E-021
 -3.470000000000000E-002   -5.315375900060533E-021
 -3.460000000000000E-002   -1.081854060121589E-020
 -3.450000000000000E-002   -1.875557809362146E-020
 -3.440000000000000E-002   -2.938654316899301E-020
 -3.430000000000000E-002   -4.258223178587957E-020
 -3.420000000000000E-002   -5.755640974593759E-020
 -3.410000000000000E-002   -7.254481442036238E-020
 -3.400000000000000E-002   -8.446186695120066E-020
 -3.390000000000000E-002   -8.858998014230809E-020
 -3.380000000000000E-002   -7.838509315397374E-020
 -3.370000000000000E-002   -4.550986580951315E-020
 -3.360000000000000E-002    1.977002249467665E-020
 -3.350000000000000E-002    1.276827706051765E-019
 -3.340000000000000E-002    2.874068967209768E-019
 -3.330000000000000E-002    5.047987916502934E-019
 -3.320000000000000E-002    7.793875933321395E-019
 -3.310000000000000E-002    1.100759976327065E-018
 -3.300000000000000E-002    1.444636543606350E-018
 -3.290000000000000E-002    1.769147741859372E-018
 -3.280000000000000E-002    2.012038788131741E-018
 -3.270000000000000E-002    2.089751504911547E-018
 -3.260000000000000E-002    1.899452262605768E-018
 -3.250000000000000E-002    1.325129473591599E-018
 -3.240000000000000E-002    2.487088503518826E-019
 -3.230000000000000E-002   -1.433221212746038E-018
 -3.220000000000000E-002   -3.787141395081179E-018
 -3.210000000000000E-002   -6.815751138797076E-018
 -3.200000000000000E-002   -1.042865358636844E-017
 -3.190000000000000E-002   -1.441398300055679E-017
 -3.180000000000000E-002   -1.841563653176792E-017
 -3.170000000000000E-002   -2.192187173287371E-017
 -3.160000000000000E-002   -2.427150407113748E-017
 -3.150000000000000E-002   -2.468382786696759E-017
 -3.140000000000000E-002   -2.231715693240053E-017
 -3.130000000000000E-002   -1.635825067063695E-017
 -3.120000000000000E-002   -6.141350621647491E-018
 -3.110000000000000E-002    8.709510723719492E-018
 -3.100000000000000E-002    2.812712193433997E-017
 -3.090000000000000E-002    5.145475638099020E-017
 -3.080000000000000E-002    7.733028817148202E-017
 -3.070000000000000E-002    1.036282450521010E-016
 -3.060000000000000E-002    1.274876543996688E-016
 -3.050000000000000E-002    1.454505851251404E-016
 -3.040000000000000E-002    1.537283708743699E-016
 -3.030000000000000E-002    1.485986290188512E-016
 -3.020000000000000E-002    1.269185005871134E-016
 -3.010000000000000E-002    8.671641225390536E-017
 -3.000000000000000E-002    2.780140946336148E-017
 -2.990000000000000E-002   -4.769412776538129E-017
 -2.980000000000000E-002   -1.349397142574021E-016
 -2.970000000000000E-002   -2.263092440295220E-016
 -2.960000000000000E-002   -3.116631176868110E-016
 -2.950000000000000E-002   -3.790894862973514E-016
 -2.940000000000000E-002   -4.161389097826114E-016
 -2.930000000000000E-002   -4.115268545974687E-016
 -2.920000000000000E-002   -3.571956839280939E-016
 -2.910000000000000E-002   -2.505424435044154E-016
 -2.900000000000000E-002   -9.653023506792555E-017
 -2.890000000000000E-002    9.067133746250402E-017
 -2.880000000000000E-002    2.869163010337166E-016
 -2.870000000000000E-002    4.585804832082974E-016
 -2.860000000000000E-002    5.646672880816176E-016
 -2.850000000000000E-002    5.607305418947412E-016
 -2.840000000000000E-002    4.046336613952153E-016
 -2.830000000000000E-002    6.389523734212032E-017
 -2.820000000000000E-002   -4.759170337578368E-016
 -2.810000000000000E-002   -1.202617116223189E-015
 -2.800000000000000E-002   -2.069801948214793E-015
 -2.790000000000000E-002   -2.991602715644400E-015
 -2.780000000000000E-002   -3.841242336327702E-015
 -2.770000000000000E-002   -4.454785852251557E-015
 -2.760000000000000E-002   -4.641166965548922E-015
 -2.750000000000000E-002   -4.199061480937898E-015
 -2.740000000000000E-002   -2.940429346657966E-015
 -2.730000000000000E-002   -7.196175690951940E-016
 -2.720000000000000E-002    2.534121726118807E-015
 -2.710000000000000E-002    6.783871664604606E-015
 -2.700000000000000E-002    1.185614243657686E-014
 -2.690000000000000E-002    1.742051666883563E-014
 -2.680000000000000E-002    2.298273769184598E-014
 -2.670000000000000E-002    2.789573300514263E-014
 -2.660000000000000E-002    3.139204558261990E-014
 -2.650000000000000E-002    3.263933717172039E-014
 -2.640000000000000E-002    3.081829942062497E-014
 -2.630000000000000E-002    2.521942608807596E-014
 -2.620000000000000E-002    1.535194283617566E-014
 -2.610000000000000E-002    1.055125222764779E-015
 -2.600000000000000E-002   -1.740026923213423E-014
 -2.590000000000000E-002   -3.923453549682485E-014
 -2.580000000000000E-002   -6.311993652942944E-014
 -2.570000000000000E-002   -8.719319049090159E-014
 -2.560000000000000E-002   -1.091296962392980E-013
 -2.550000000000000E-002   -1.262847561818385E-013
 -2.540000000000000E-002   -1.359004840285817E-013
 -2.530000000000000E-002   -1.353693232309732E-013
 -2.520000000000000E-002   -1.225368203540119E-013
 -2.510000000000000E-002   -9.601823650859358E-014
 -2.500000000000000E-002   -5.549708634353241E-014
 -2.490000000000000E-002   -1.969237477575251E-015
 -2.480000000000000E-002    6.210460690554723E-014
 -2.470000000000000E-002    1.327721179079427E-013
 -2.460000000000000E-002    2.047148078379267E-013
 -2.450000000000000E-002    2.715401068864280E-013
 -2.440000000000000E-002    3.262389158079262E-013
 -2.430000000000000E-002    3.617883873716360E-013
 -2.420000000000000E-002    3.718611127343597E-013
 -2.410000000000000E-002    3.515819010959053E-013
 -2.400000000000000E-002    2.982594221698979E-013
 -2.390000000000000E-002    2.120096143637587E-013
 -2.380000000000000E-002    9.618582309846566E-014
 -2.370000000000000E-002   -4.246214585581645E-014
 -2.360000000000000E-002   -1.939609264603763E-013
 -2.350000000000000E-002   -3.456526307842601E-013
 -2.340000000000000E-002   -4.831002136242294E-013
 -2.330000000000000E-002   -5.913183480902366E-013
 -2.320000000000000E-002   -6.562486168595082E-013
 -2.310000000000000E-002   -6.663568021247434E-013
 -2.300000000000000E-002   -6.141995648149257E-013
 -2.290000000000000E-002   -4.977877446706517E-013
 -2.280000000000000E-002   -3.215679742847903E-013
 -2.270000000000000E-002   -9.686174534611759E-014
 -2.260000000000000E-002    1.583658484097435E-013
 -2.250000000000000E-002    4.204809635748333E-013
 -2.240000000000000E-002    6.619030130865700E-013
 -2.230000000000000E-002    8.534974874219138E-013
 -2.220000000000000E-002    9.674806500051354E-013
 -2.210000000000000E-002    9.805967023820374E-013
 -2.200000000000000E-002    8.772700781896769E-013
 -2.190000000000000E-002    6.523902273941129E-013
 -2.180000000000000E-002    3.133825285582531E-013
 -2.170000000000000E-002   -1.187563799712820E-013
 -2.160000000000000E-002   -6.097136555820634E-013
 -2.150000000000000E-002   -1.113559516809739E-012
 -2.140000000000000E-002   -1.575913187380556E-012
 -2.130000000000000E-002   -1.938447230297281E-012
 -2.120000000000000E-002   -2.144444277662424E-012
 -2.110000000000000E-002   -2.144973804707727E-012
 -2.100000000000000E-002   -1.905130744582487E-012
 -2.090000000000000E-002   -1.409702933147373E-012
 -2.080000000000000E-002   -6.676063165341515E-013
 -2.070000000000000E-002    2.855305621370429E-013
 -2.060000000000000E-002    1.387143864229777E-012
 -2.050000000000000E-002    2.550209643747577E-012
 -2.040000000000000E-002    3.668520734247972E-012
 -2.030000000000000E-002    4.624601112195349E-012
 -2.020000000000000E-002    5.299812819718625E-012
 -2.010000000000000E-002    5.585921456929242E-012
 -2.000000000000000E-002    5.397167413110642E-012
 -1.990000000000000E-002    4.681707712956731E-012
 -1.980000000000000E-002    3.431225760090211E-012
 -1.970000000000000E-002    1.687528954344813E-012
 -1.960000000000000E-002   -4.548832505963868E-013
 -1.950000000000000E-002   -2.851035413391950E-012
 -1.940000000000000E-002   -5.312853085506044E-012
 -1.930000000000000E-002   -7.621629130942468E-012
 -1.920000000000000E-002   -9.544991488720936E-012
 -1.910000000000000E-002   -1.085730594877968E-011
 -1.900000000000000E-002   -1.136195526916072E-011
 -1.890000000000000E-002   -1.091361797000031E-011
 -1.880000000000000E-002   -9.438388981589851E-012
 -1.870000000000000E-002   -6.949596451971927E-012
 -1.860000000000000E-002   -3.557261833827078E-012
 -1.850000000000000E-002    5.304399647312517E-013
 -1.840000000000000E-002    5.014831725074726E-012
 -1.830000000000000E-002    9.523864555100172E-012
 -1.820000000000000E-002    1.363826043784907E-011
 -1.810000000000000E-002    1.692527218062515E-011
 -1.800000000000000E-002    1.897780535644360E-011
 -1.790000000000000E-002    1.945586971654973E-011
 -1.780000000000000E-002    1.812671333993131E-011
 -1.770000000000000E-002    1.489975380024088E-011
 -1.760000000000000E-002    9.852350195663042E-012
 -1.750000000000000E-002    3.242914263670202E-012
 -1.740000000000000E-002   -4.491397358990083E-012
 -1.730000000000000E-002   -1.275405916599100E-011
 -1.720000000000000E-002   -2.082585437982209E-011
 -1.710000000000000E-002   -2.791750719647079E-011
 -1.700000000000000E-002   -3.323519635349731E-011
 -1.690000000000000E-002   -3.605441174158180E-011
 -1.680000000000000E-002   -3.579612986333270E-011
 -1.670000000000000E-002   -3.209844335974275E-011
 -1.660000000000000E-002   -2.487634147533266E-011
 -1.650000000000000E-002   -1.436257114641843E-011
 -1.640000000000000E-002   -1.123446892118408E-012
 -1.630000000000000E-002    1.395484765917876E-011
 -1.620000000000000E-002    2.971167984738576E-011
 -1.610000000000000E-002    4.478856170242637E-011
 -1.600000000000000E-002    5.773325047010419E-011
 -1.590000000000000E-002    6.712473962046677E-011
 -1.580000000000000E-002    7.170954681904636E-011
 -1.570000000000000E-002    7.053765771006966E-011
 -1.560000000000000E-002    6.308497347237671E-011
 -1.550000000000000E-002    4.934899560488278E-011
 -1.540000000000000E-002    2.990544782849580E-011
 -1.530000000000000E-002    5.915921186923087E-012
 -1.520000000000000E-002   -2.091972110518880E-011
 -1.510000000000000E-002   -4.846775073766503E-011
 -1.500000000000000E-002   -7.431799723484620E-011
 -1.490000000000000E-002   -9.598478222624072E-011
 -1.480000000000000E-002   -1.111365331720337E-010
 -1.470000000000000E-002   -1.178346083115047E-010
 -1.460000000000000E-002   -1.147588503823757E-010
 -1.450000000000000E-002   -1.013961955517955E-010
 -1.440000000000000E-002   -7.816951577978320E-011
 -1.430000000000000E-002   -4.648765018662852E-011
 -1.420000000000000E-002   -8.702975539991412E-012
 -1.410000000000000E-002    3.202895316961667E-011
 -1.400000000000000E-002    7.198416371676071E-011
 -1.390000000000000E-002    1.071858269482708E-010
 -1.380000000000000E-002    1.337773825933354E-010
 -1.370000000000000E-002    1.484216325935449E-010
 -1.360000000000000E-002    1.486882019808237E-010
 -1.350000000000000E-002    1.333888629890175E-010
 -1.340000000000000E-002    1.028211586513146E-010
 -1.330000000000000E-002    5.888607882453323E-011
 -1.320000000000000E-002    5.054535607184470E-012
 -1.310000000000000E-002   -5.382961936126988E-011
 -1.300000000000000E-002   -1.119069648490601E-010
 -1.290000000000000E-002   -1.628004064533226E-010
 -1.280000000000000E-002   -2.002173016311900E-010
 -1.270000000000000E-002   -2.186051912483543E-010
 -1.260000000000000E-002   -2.137997272901451E-010
 -1.250000000000000E-002   -1.835979270277620E-010
 -1.240000000000000E-002   -1.281907299725694E-010
 -1.230000000000000E-002   -5.039679368249740E-011
 -1.220000000000000E-002    4.434634184775242E-011
 -1.210000000000000E-002    1.482570053224576E-010
 -1.200000000000000E-002    2.517484759200470E-010
 -1.190000000000000E-002    3.442039455140422E-010
 -1.180000000000000E-002    4.149319564466795E-010
 -1.170000000000000E-002    4.542234764103157E-010
 -1.160000000000000E-002    4.544142474131387E-010
 -1.150000000000000E-002    4.108458290813046E-010
 -1.140000000000000E-002    3.226202453225644E-010
 -1.130000000000000E-002    1.930536885333188E-010
 -1.120000000000000E-002    2.975697242425184E-011
 -1.110000000000000E-002   -1.556984885402691E-010
 -1.100000000000000E-002   -3.485320385174510E-010
 -1.090000000000000E-002   -5.318841583578659E-010
 -1.080000000000000E-002   -6.882457306127165E-010
 -1.070000000000000E-002   -8.010700454260199E-010
 -1.060000000000000E-002   -8.564230002440775E-010
 -1.050000000000000E-002   -8.445124503193890E-010
 -1.040000000000000E-002   -7.609364718335902E-010
 -1.030000000000000E-002   -6.075063304268610E-010
 -1.020000000000000E-002   -3.925318194734333E-010
 -1.010000000000000E-002   -1.305008137779392E-010
 -1.000000000000000E-002    1.588578424024626E-010
 -9.899999999999999E-003    4.520803651832847E-010
 -9.800000000000000E-003    7.239333277542528E-010
 -9.699999999999999E-003    9.496762362895521E-010
 -9.599999999999999E-003    1.107418515143884E-009
 -9.500000000000000E-003    1.180344601300709E-009
 -9.399999999999999E-003    1.158579864024550E-009
 -9.299999999999999E-003    1.040490982857833E-009
 -9.200000000000000E-003    8.332577558175245E-010
 -9.099999999999999E-003    5.526167094198081E-010
 -8.999999999999999E-003    2.217530539933242E-010
 -8.900000000000000E-003   -1.305971555385111E-010
 -8.799999999999999E-003   -4.726912461545065E-010
 -8.699999999999999E-003   -7.727519182912693E-010
 -8.600000000000000E-003   -1.002092571267048E-009
 -8.499999999999999E-003   -1.138091705116071E-009
 -8.399999999999999E-003   -1.166706791228311E-009
 -8.300000000000000E-003   -1.084248851281649E-009
 -8.199999999999999E-003   -8.981974169011066E-010
 -8.100000000000000E-003   -6.269199631872584E-010
 -8.000000000000000E-003   -2.982630761955917E-010
 -7.899999999999999E-003    5.290349973586538E-011
 -7.800000000000000E-003    3.879987152751186E-010
 -7.699999999999999E-003    6.686073642810173E-010
 -7.599999999999999E-003    8.605595363403129E-010
 -7.499999999999999E-003    9.378049444172666E-010
 -7.399999999999999E-003    8.856740649929697E-010
 -7.299999999999999E-003    7.031550828873103E-010
 -7.199999999999999E-003    4.038939744854769E-010
 -7.100000000000000E-003    1.573651789069977E-011
 -6.999999999999999E-003   -4.212316125991496E-010
 -6.899999999999999E-003   -8.580435755315960E-010
 -6.800000000000000E-003   -1.241356517447944E-009
 -6.699999999999999E-003   -1.518723256153457E-009
 -6.599999999999999E-003   -1.644150878134924E-009
 -6.499999999999999E-003   -1.583408822808910E-009
 -6.399999999999999E-003   -1.318542121741458E-009
 -6.299999999999999E-003   -8.510924779513856E-010
 -6.199999999999999E-003   -2.036276714916709E-010
 -6.100000000000000E-003    5.806802807056225E-010
 -5.999999999999999E-003    1.440510399061928E-009
 -5.899999999999999E-003    2.300773590747652E-009
 -5.800000000000000E-003    3.078619885213454E-009
 -5.699999999999999E-003    3.690599346433440E-009
 -5.599999999999999E-003    4.060371849471261E-009
 -5.499999999999999E-003    4.126275074281453E-009
 -5.399999999999999E-003    3.848037540201451E-009
 -5.299999999999999E-003    3.211973020485031E-009
 -5.199999999999999E-003    2.234095494782314E-009
 -5.099999999999999E-003    9.607673848521479E-010
 -4.999999999999999E-003   -5.332978606023983E-010
 -4.899999999999999E-003   -2.149622294419414E-009
 -4.799999999999999E-003   -3.772839719120112E-009
 -4.699999999999999E-003   -5.279343818957495E-009
 -4.599999999999999E-003   -6.547002915998752E-009
 -4.499999999999999E-003   -7.465124535891480E-009
 -4.399999999999999E-003   -7.943785231383895E-009
 -4.299999999999999E-003   -7.921690902620375E-009
 -4.199999999999999E-003   -7.371822041780191E-009
 -4.099999999999999E-003   -6.304313578633156E-009
 -3.999999999999999E-003   -4.766248626558823E-009
 -3.899999999999999E-003   -2.838323198949240E-009
 -3.799999999999999E-003   -6.286233448201486E-010
 -3.699999999999999E-003    1.735969281498622E-009
 -3.599999999999999E-003    4.119996479601884E-009
 -3.499999999999999E-003    6.390356643852982E-009
 -3.399999999999999E-003    8.426944812853186E-009
 -3.299999999999999E-003    1.013200894479105E-008
 -3.199999999999999E-003    1.143732528300377E-008
 -3.099999999999999E-003    1.230848309490859E-008
 -2.999999999999999E-003    1.274583129004398E-008
 -2.899999999999999E-003    1.278195041345667E-008
 -2.799999999999999E-003    1.247585222421324E-008
 -2.699999999999999E-003    1.190442261459423E-008
 -2.599999999999999E-003    1.115193271945410E-008
 -2.499999999999999E-003    1.029863989852623E-008
 -2.399999999999999E-003    9.409653681418896E-009
 -2.299999999999999E-003    8.525240709171376E-009
 -2.199999999999999E-003    7.653684860961083E-009
 -2.099999999999999E-003    6.767588051086309E-009
 -1.999999999999999E-003    5.804238049975349E-009
 -1.899999999999999E-003    4.670287597063566E-009
 -1.799999999999999E-003    3.250607667249581E-009
 -1.699999999999999E-003    1.420755000043594E-009
 -1.599999999999999E-003   -9.378463247213192E-010
 -1.499999999999999E-003   -3.921233191737701E-009
 -1.399999999999999E-003   -7.586137256115266E-009
 -1.299999999999999E-003   -1.193460875208838E-008
 -1.199999999999999E-003   -1.690144639477369E-008
 -1.099999999999999E-003   -2.234564260134058E-008
 -9.999999999999989E-004   -2.804674644230507E-008
 -8.999999999999990E-004   -3.370662670510824E-008
 -7.999999999999990E-004   -3.895663286888908E-008
 -6.999999999999989E-004   -4.336964591984134E-008
 -5.999999999999990E-004   -4.647607261895205E-008
 -4.999999999999989E-004   -4.778239722223469E-008
 -3.999999999999989E-004   -4.679063094343111E-008
 -2.999999999999989E-004   -4.301686910128123E-008
 -1.999999999999989E-004   -3.600715753001181E-008
 -9.999999999999892E-005   -2.534907199858871E-008
  1.084202172485504E-018   -1.067774493034244E-008
  1.000000000000011E-004    8.324407615716316E-009
  2.000000000000011E-004    3.193451883318704E-008
  3.000000000000011E-004    6.040226357038716E-008
  4.000000000000011E-004    9.396799288525881E-008
  5.000000000000011E-004    1.328845072695582E-007
  6.000000000000011E-004    1.774406336399945E-007
  7.000000000000011E-004    2.279843596645944E-007
  8.000000000000011E-004    2.849433866540423E-007
  9.000000000000012E-004    3.488411317377225E-007
  1.000000000000001E-003    4.203064304547166E-007
  1.100000000000001E-003    5.000760236308143E-007
  1.200000000000001E-003    5.889891027729496E-007
  1.300000000000001E-003    6.879747550792550E-007
  1.400000000000001E-003    7.980323227940171E-007
  1.500000000000001E-003    9.202078016427517E-007
  1.600000000000001E-003    1.055567221621859E-006
  1.700000000000001E-003    1.205170483368412E-006
  1.800000000000001E-003    1.370047904289645E-006
  1.900000000000001E-003    1.551181437690990E-006
  2.000000000000001E-003    1.749494910833800E-006
  2.100000000000001E-003    1.965851319172822E-006
  2.200000000000001E-003    2.201061315196098E-006
  2.300000000000001E-003    2.455900542545222E-006
  2.400000000000001E-003    2.731136164929849E-006
  2.500000000000001E-003    3.027559657719333E-006
  2.600000000000001E-003    3.346023806862681E-006
  2.700000000000001E-003    3.687480603847689E-006
  2.800000000000001E-003    4.053018309727865E-006
  2.900000000000001E-003    4.443891735720039E-006
  3.000000000000001E-003    4.861545798696774E-006
  3.100000000000001E-003    5.307629540579763E-006
  3.200000000000001E-003    5.783998279608791E-006
  3.300000000000001E-003    6.292705579508236E-006
  3.400000000000001E-003    6.835985679763520E-006
  3.500000000000001E-003    7.416225256355479E-006
  3.600000000000001E-003    8.035932440157759E-006
  3.700000000000001E-003    8.697706102584551E-006
  3.800000000000001E-003    9.404199977249153E-006
  3.900000000000001E-003    1.015809976521370E-005
  4.000000000000001E-003    1.096210354681536E-005
  4.100000000000001E-003    1.181891664685615E-005
  4.200000000000001E-003    1.273125851402763E-005
  4.300000000000001E-003    1.370188098245790E-005
  4.400000000000001E-003    1.473359756329340E-005
  4.500000000000001E-003    1.582933180421025E-005
  4.600000000000002E-003    1.699215764051872E-005
  4.700000000000001E-003    1.822535915552107E-005
  4.800000000000001E-003    1.953247581938608E-005
  4.900000000000002E-003    2.091735690638820E-005
  5.000000000000001E-003    2.238419407604505E-005
  5.100000000000001E-003    2.393755296326843E-005
  5.200000000000001E-003    2.558238610780330E-005
  5.300000000000002E-003    2.732403810720594E-005
  5.400000000000001E-003    2.916822683792050E-005
  5.500000000000001E-003    3.112103078494063E-005
  5.600000000000002E-003    3.318885147522738E-005
  5.700000000000001E-003    3.537838295944116E-005
  5.800000000000001E-003    3.769657676568335E-005
  5.900000000000002E-003    4.015061950244067E-005
  6.000000000000001E-003    4.274790788899853E-005
  6.100000000000001E-003    4.549604481631158E-005
  6.200000000000002E-003    4.840285026021642E-005
  6.300000000000002E-003    5.147638556728465E-005
  6.400000000000001E-003    5.472499898511961E-005
  6.500000000000001E-003    5.815735546888359E-005
  6.600000000000002E-003    6.178253605522118E-005
  6.700000000000001E-003    6.561007713140055E-005
  6.800000000000001E-003    6.965005666212517E-005
  6.900000000000002E-003    7.391316483727149E-005
  7.000000000000001E-003    7.841076011225125E-005
  7.100000000000001E-003    8.315491322707070E-005
  7.200000000000002E-003    8.815845158029341E-005
  7.300000000000002E-003    9.343497338772284E-005
  7.400000000000001E-003    9.899886624473853E-005
  7.500000000000001E-003    1.048652850071645E-004
  7.600000000000002E-003    1.110501473899062E-004
  7.700000000000001E-003    1.175700928205232E-004
  7.800000000000001E-003    1.244424735149042E-004
  7.900000000000001E-003    1.316853349745752E-004
  8.000000000000002E-003    1.393174026877797E-004
  8.100000000000001E-003    1.473580709182802E-004
  8.200000000000001E-003    1.558274380536488E-004
  8.300000000000002E-003    1.647463322654660E-004
  8.400000000000001E-003    1.741363678871840E-004
  8.500000000000002E-003    1.840199994226370E-004
  8.600000000000002E-003    1.944206212361214E-004
  8.700000000000001E-003    2.053626571963900E-004
  8.800000000000002E-003    2.168716560517589E-004
  8.900000000000002E-003    2.289743647439133E-004
  9.000000000000001E-003    2.416988491618279E-004
  9.100000000000002E-003    2.550745272277924E-004
  9.200000000000002E-003    2.691323143697403E-004
  9.300000000000001E-003    2.839045672862472E-004
  9.400000000000002E-003    2.994252114375852E-004
  9.500000000000001E-003    3.157296721655813E-004
  9.600000000000001E-003    3.328549139270968E-004
  9.700000000000002E-003    3.508394829776780E-004
  9.800000000000001E-003    3.697234138010627E-004
  9.900000000000001E-003    3.895482408416444E-004
  1.000000000000000E-002    4.103570400862812E-004
  1.010000000000000E-002    4.321943779444686E-004
  1.020000000000000E-002    4.551064273395012E-004
  1.030000000000000E-002    4.791408699690958E-004
  1.040000000000000E-002    5.043471301419267E-004
  1.050000000000000E-002    5.307763917863379E-004
  1.060000000000000E-002    5.584816517290256E-004
  1.070000000000000E-002    5.875178527198817E-004
  1.080000000000000E-002    6.179421039422579E-004
  1.090000000000000E-002    6.498137280546932E-004
  1.100000000000000E-002    6.831943868481396E-004
  1.110000000000000E-002    7.181482092776211E-004
  1.120000000000000E-002    7.547419599056932E-004
  1.130000000000000E-002    7.930450497501462E-004
  1.140000000000000E-002    8.331296324490963E-004
  1.150000000000000E-002    8.750706129424285E-004
  1.160000000000000E-002    9.189458335268247E-004
  1.170000000000000E-002    9.648359643945055E-004
  1.180000000000000E-002    1.012824496835773E-003
  1.190000000000000E-002    1.062997728434207E-003
  1.200000000000000E-002    1.115444944619715E-003
  1.210000000000000E-002    1.170258259336857E-003
  1.220000000000000E-002    1.227532635936141E-003
  1.230000000000000E-002    1.287366117248032E-003
  1.240000000000000E-002    1.349859602230150E-003
  1.250000000000000E-002    1.415117260304457E-003
  1.260000000000000E-002    1.483246502457160E-003
  1.270000000000000E-002    1.554357935768063E-003
  1.280000000000000E-002    1.628565892812251E-003
  1.290000000000000E-002    1.705988313352810E-003
  1.300000000000000E-002    1.786746725130305E-003
  1.310000000000000E-002    1.870966774246438E-003
  1.320000000000000E-002    1.958778499340052E-003
  1.330000000000000E-002    2.050315587423998E-003
  1.340000000000000E-002    2.145716245167170E-003
  1.350000000000000E-002    2.245123060958677E-003
  1.360000000000000E-002    2.348682945819486E-003
  1.370000000000000E-002    2.456547603329351E-003
  1.380000000000000E-002    2.568872526215761E-003
  1.390000000000000E-002    2.685818023428144E-003
  1.400000000000000E-002    2.807548803029922E-003
  1.410000000000000E-002    2.934233813906934E-003
  1.420000000000000E-002    3.066046798565270E-003
  1.430000000000000E-002    3.203165463564143E-003
  1.440000000000000E-002    3.345771986359530E-003
  1.450000000000000E-002    3.494053424445253E-003
  1.460000000000000E-002    3.648201455773871E-003
  1.470000000000000E-002    3.808411435645906E-003
  1.480000000000000E-002    3.974885084505657E-003
  1.490000000000000E-002    4.147828017735169E-003
  1.500000000000000E-002    4.327451286212698E-003
  1.510000000000000E-002    4.513971296161420E-003
  1.520000000000000E-002    4.707609507263260E-003
  1.530000000000000E-002    4.908592914064723E-003
  1.540000000000000E-002    5.117154073589136E-003
  1.550000000000000E-002    5.333531213574888E-003
  1.560000000000000E-002    5.557967781059930E-003
  1.570000000000000E-002    5.790713370268635E-003
  1.580000000000000E-002    6.032022273883401E-003
  1.590000000000000E-002    6.282154995990499E-003
  1.600000000000000E-002    6.541377026932840E-003
  1.610000000000000E-002    6.809958485044604E-003
  1.620000000000000E-002    7.088176181713804E-003
  1.630000000000000E-002    7.376310576203295E-003
  1.640000000000000E-002    7.674647140497007E-003
  1.650000000000000E-002    7.983477000513904E-003
  1.660000000000000E-002    8.303095488234005E-003
  1.670000000000000E-002    8.633802926169953E-003
  1.680000000000000E-002    8.975905053100620E-003
  1.690000000000000E-002    9.329711350023919E-003
  1.700000000000000E-002    9.695536006733877E-003
  1.710000000000000E-002    1.007369936411321E-002
  1.720000000000000E-002    1.046452429777947E-002
  1.730000000000000E-002    1.086834062924003E-002
  1.740000000000000E-002    1.128548124684440E-002
  1.750000000000000E-002    1.171628376028776E-002
  1.760000000000000E-002    1.216109122982226E-002
  1.770000000000000E-002    1.262024991511235E-002
  1.780000000000000E-002    1.309411034502640E-002
  1.790000000000000E-002    1.358302678357542E-002
  1.800000000000000E-002    1.408735872403173E-002
  1.810000000000000E-002    1.460746650404042E-002
  1.820000000000000E-002    1.514371573389958E-002
  1.830000000000000E-002    1.569647400489570E-002
  1.840000000000000E-002    1.626611193879963E-002
  1.850000000000000E-002    1.685300078781363E-002
  1.860000000000000E-002    1.745751449585415E-002
  1.870000000000000E-002    1.808003090593163E-002