 -4.000000000000000E-002    0.000000000000000E+000
 -3.990000000000000E-002    0.000000000000000E+000
 -3.980000000000000E-002    0.000000000000000E+000
 -3.970000000000000E-002    0.000000000000000E+000
 -3.960000000000000E-002    0.000000000000000E+000
 -3.950000000000000E-002    0.000000000000000E+000
 -3.940000000000000E-002    0.000000000000000E+000
 -3.930000000000000E-002   -3.076507311536057E-027
 -3.920000000000000E-002   -4.279472531716768E-026
 -3.910000000000000E-002   -3.133576231414871E-025
 -3.900000000000000E-002   -1.601899016290173E-024
 -3.890000000000000E-002   -6.397839580118626E-024
 -3.880000000000000E-002   -2.117783188097998E-023
 -3.870000000000000E-002   -6.015876762256277E-023
 -3.860000000000000E-002   -1.497817771392762E-022
 -3.850000000000000E-002   -3.306810352059883E-022
 -3.840000000000000E-002   -6.493232946556485E-022
 -3.830000000000000E-002   -1.124864566596092E-021
 -3.820000000000000E-002   -1.669281493879730E-021
 -3.810000000000000E-002   -1.933937796674305E-021
 -3.800000000000000E-002   -1.059636323928070E-021
 -3.790000000000000E-002    2.671063027743532E-021
 -3.780000000000000E-002    1.223008648262080E-020
 -3.770000000000000E-002    3.215054007528281E-020
 -3.760000000000000E-002    6.847493938156092E-020
 -3.750000000000000E-002    1.279121023307667E-019
 -3.740000000000000E-002    2.156040292188287E-019
 -3.730000000000000E-002    3.307889487334245E-019
 -3.720000000000000E-002    4.596781419095633E-019
 -3.710000000000000E-002    5.651407038586849E-019
 -3.700000000000000E-002    5.734423173218755E-019
 -3.690000000000000E-002    3.594135181593182E-019
 -3.680000000000000E-002   -2.669478455402703E-019
 -3.670000000000000E-002   -1.567363266995192E-018
 -3.660000000000000E-002   -3.868316384018114E-018
 -3.650000000000000E-002   -7.530896498769194E-018
 -3.640000000000000E-002   -1.288709634760861E-017
 -3.630000000000000E-002   -2.013285243250441E-017
 -3.620000000000000E-002   -2.917170315092300E-017
 -3.610000000000000E-002   -3.940992156939284E-017
 -3.600000000000000E-002   -4.951533717391133E-017
 -3.590000000000000E-002   -5.716739743353709E-017
 -3.580000000000000E-002   -5.884428637842104E-017
 -3.570000000000000E-002   -4.971272566577279E-017
 -3.560000000000000E-002   -2.370267433748279E-017
 -3.550000000000000E-002    2.614002617340475E-017
 -3.540000000000000E-002    1.069336489908515E-016
 -3.530000000000000E-002    2.248024173276734E-016
 -3.520000000000000E-002    3.832537697012072E-016
 -3.510000000000000E-002    5.811321519813714E-016
 -3.500000000000000E-002    8.102822145624352E-016
 -3.490000000000000E-002    1.053166854309953E-015
 -3.480000000000000E-002    1.280802681435352E-015
 -3.470000000000000E-002    1.451487092539189E-015
 -3.460000000000000E-002    1.510862671728898E-015
 -3.450000000000000E-002    1.393896012526145E-015
 -3.440000000000000E-002    1.029271971416785E-015
 -3.430000000000000E-002    3.465567036858189E-016
 -3.420000000000000E-002   -7.138174677637029E-016
 -3.410000000000000E-002   -2.188065468237569E-015
 -3.400000000000000E-002   -4.074879660873099E-015
 -3.390000000000000E-002   -6.320929318237551E-015
 -3.380000000000000E-002   -8.807896373674147E-015
 -3.370000000000000E-002   -1.134333890404830E-014
 -3.360000000000000E-002   -1.365791943075484E-014
 -3.350000000000000E-002   -1.541146062737342E-014
 -3.340000000000000E-002   -1.620990748626278E-014
 -3.330000000000000E-002   -1.563437941739982E-014
 -3.320000000000000E-002   -1.328231311772821E-014
 -3.310000000000000E-002   -8.819040509055918E-015
 -3.300000000000000E-002   -2.036259511034058E-015
 -3.290000000000000E-002    7.087975187558685E-015
 -3.280000000000000E-002    1.833487294315250E-014
 -3.270000000000000E-002    3.120447056586457E-014
 -3.260000000000000E-002    4.489778373827367E-014
 -3.250000000000000E-002    5.832965419964385E-014
 -3.240000000000000E-002    7.017838521329701E-014
 -3.230000000000000E-002    7.897513373195709E-014
 -3.220000000000000E-002    8.323160731449934E-014
 -3.210000000000000E-002    8.159930277067454E-014
 -3.200000000000000E-002    7.304799169413433E-014
 -3.190000000000000E-002    5.704562053797372E-014
 -3.180000000000000E-002    3.371764521617347E-014
 -3.170000000000000E-002    3.961203682082379E-015
 -3.160000000000000E-002   -3.051003299442961E-014
 -3.150000000000000E-002   -6.721125586203025E-014
 -3.140000000000000E-002   -1.030359378820696E-013
 -3.130000000000000E-002   -1.345131171667656E-013
 -3.120000000000000E-002   -1.581628500007005E-013
 -3.110000000000000E-002   -1.709258705365677E-013
 -3.100000000000000E-002   -1.706286618457659E-013
 -3.090000000000000E-002   -1.564315413633383E-013
 -3.080000000000000E-002   -1.291990320091009E-013
 -3.070000000000000E-002   -9.172768324660440E-014
 -3.060000000000000E-002   -4.877068227102193E-014
 -3.050000000000000E-002   -6.811383950265818E-015
 -3.040000000000000E-002    2.644137248202917E-014
 -3.030000000000000E-002    4.283400024619571E-014
 -3.020000000000000E-002    3.478841106787403E-014
 -3.010000000000000E-002   -3.512229823317793E-015
 -3.000000000000000E-002   -7.488188311402361E-014
 -2.990000000000000E-002   -1.779743671902903E-013
 -2.980000000000000E-002   -3.063685905832231E-013
 -2.970000000000000E-002   -4.480601067555714E-013
 -2.960000000000000E-002   -5.855076686039003E-013
 -2.950000000000000E-002   -6.963498729779183E-013
 -2.940000000000000E-002   -7.548513452725466E-013
 -2.930000000000000E-002   -7.340716813245697E-013
 -2.920000000000000E-002   -6.086602616191141E-013
 -2.910000000000000E-002   -3.581000588594292E-013
 -2.900000000000000E-002    2.986576959532319E-014
 -2.890000000000000E-002    5.559562386109391E-013
 -2.880000000000000E-002    1.206602088307492E-012
 -2.870000000000000E-002    1.952113429213363E-012
 -2.860000000000000E-002    2.746127025654547E-012
 -2.850000000000000E-002    3.526627986712688E-012
 -2.840000000000000E-002    4.218726568804183E-012
 -2.830000000000000E-002    4.739222803691222E-012
 -2.820000000000000E-002    5.002818483845833E-012
 -2.810000000000000E-002    4.929646455692171E-012
 -2.800000000000000E-002    4.453606596502057E-012
 -2.790000000000000E-002    3.530840933753954E-012
 -2.780000000000000E-002    2.147561812910318E-012
 -2.770000000000000E-002    3.263939125247549E-013
 -2.760000000000000E-002   -1.869586502151922E-012
 -2.750000000000000E-002   -4.335837790644209E-012
 -2.740000000000000E-002   -6.928897612713658E-012
 -2.730000000000000E-002   -9.472757951045089E-012
 -2.720000000000000E-002   -1.176903670136508E-011
 -2.710000000000000E-002   -1.361053421185476E-011
 -2.700000000000000E-002   -1.479742245864673E-011
 -2.690000000000000E-002   -1.515494706805887E-011
 -2.680000000000000E-002   -1.455126898920036E-011
 -2.670000000000000E-002   -1.291385920268405E-011
 -2.660000000000000E-002   -1.024281630030108E-011
 -2.650000000000000E-002   -6.619531803025546E-012
 -2.640000000000000E-002   -2.209352145918900E-012
 -2.630000000000000E-002    2.742708704641754E-012
 -2.620000000000000E-002    7.923680896815589E-012
 -2.610000000000000E-002    1.297162256171932E-011
 -2.600000000000000E-002    1.750104746067594E-011
 -2.590000000000000E-002    2.113329624685055E-011
 -2.580000000000000E-002    2.352972735811951E-011
 -2.570000000000000E-002    2.442507944449493E-011
 -2.560000000000000E-002    2.365805079590566E-011
 -2.550000000000000E-002    2.119598574176082E-011
 -2.540000000000000E-002    1.715077644730952E-011
 -2.530000000000000E-002    1.178345453516672E-011
 -2.520000000000000E-002    5.495765965763750E-012
 -2.510000000000000E-002   -1.192130975104615E-012
 -2.500000000000000E-002   -7.677402023229683E-012
 -2.490000000000000E-002   -1.332209607543097E-011
 -2.480000000000000E-002   -1.750952214950847E-011
 -2.470000000000000E-002   -1.970535286105814E-011
 -2.460000000000000E-002   -1.951830061780480E-011
 -2.450000000000000E-002   -1.675465753392982E-011
 -2.440000000000000E-002   -1.146082682543013E-011
 -2.430000000000000E-002   -3.948305312635731E-012
 -2.420000000000000E-002    5.203457922978361E-012
 -2.410000000000000E-002    1.516943013887102E-011
 -2.400000000000000E-002    2.492772023921778E-011
 -2.390000000000000E-002    3.333345118169631E-011
 -2.380000000000000E-002    3.921398122479190E-011
 -2.370000000000000E-002    4.147926250211778E-011
 -2.360000000000000E-002    3.923874058378456E-011
 -2.350000000000000E-002    3.191455467682953E-011
 -2.340000000000000E-002    1.933978888660501E-011
 -2.330000000000000E-002    1.830482432418264E-012
 -2.320000000000000E-002   -1.977878576301790E-011
 -2.310000000000000E-002   -4.414385494254404E-011
 -2.300000000000000E-002   -6.946920294074822E-011
 -2.290000000000000E-002   -9.361621802590232E-011
 -2.280000000000000E-002   -1.142574284630725E-010
 -2.270000000000000E-002   -1.290678006198201E-010
 -2.260000000000000E-002   -1.359394477334768E-010
 -2.250000000000000E-002   -1.332023285304201E-010
 -2.240000000000000E-002   -1.198305788597768E-010
 -2.230000000000000E-002   -9.561329912567916E-011
 -2.220000000000000E-002   -6.126930273090243E-011
 -2.210000000000000E-002   -1.848831606840126E-011
 -2.200000000000000E-002    3.011352979792885E-011
 -2.190000000000000E-002    8.112991919726760E-011
 -2.180000000000000E-002    1.305891943791861E-010
 -2.170000000000000E-002    1.742570220203202E-010
 -2.160000000000000E-002    2.079960238738227E-010
 -2.150000000000000E-002    2.281550295422934E-010
 -2.140000000000000E-002    2.319538213077767E-010
 -2.130000000000000E-002    2.178263644443162E-010
 -2.120000000000000E-002    1.856854164817427E-010
 -2.110000000000000E-002    1.370753028671988E-010
 -2.100000000000000E-002    7.518627583012706E-011
 -2.090000000000000E-002    4.715399987924499E-012
 -2.080000000000000E-002   -6.842897232200352E-011
 -2.070000000000000E-002   -1.375663151435267E-010
 -2.060000000000000E-002   -1.957994587274612E-010
 -2.050000000000000E-002   -2.366450823520896E-010
 -2.040000000000000E-002   -2.546866536768048E-010
 -2.030000000000000E-002   -2.461897338064295E-010
 -2.020000000000000E-002   -2.096177374562721E-010
 -2.010000000000000E-002   -1.459895035219909E-010
 -2.000000000000000E-002   -5.903000152621255E-011
 -1.990000000000000E-002    4.491960489924739E-011
 -1.980000000000000E-002    1.572465080781095E-010
 -1.970000000000000E-002    2.676557858804769E-010
 -1.960000000000000E-002    3.649721583499341E-010
 -1.950000000000000E-002    4.380969460075994E-010
 -1.940000000000000E-002    4.770445255782552E-010
 -1.930000000000000E-002    4.739677045935491E-010
 -1.920000000000000E-002    4.240751946632155E-010
 -1.910000000000000E-002    3.263460696282119E-010
 -1.900000000000000E-002    1.839579802044853E-010
 -1.890000000000000E-002    4.364785199211239E-012
 -1.880000000000000E-002   -2.010104200735358E-010
 -1.870000000000000E-002   -4.174708946738406E-010
 -1.860000000000000E-002   -6.280945943138940E-010
 -1.850000000000000E-002   -8.150654189974594E-010
 -1.840000000000000E-002   -9.611850561933948E-010
 -1.830000000000000E-002   -1.051438397562842E-009
 -1.820000000000000E-002   -1.074470268840480E-009
 -1.810000000000000E-002   -1.023830069431275E-009
 -1.800000000000000E-002   -8.988521144598722E-010
 -1.790000000000000E-002   -7.050635445224068E-010
 -1.780000000000000E-002   -4.540493602039756E-010
 -1.770000000000000E-002   -1.627523498687713E-010
 -1.760000000000000E-002    1.477674940166378E-010
 -1.750000000000000E-002    4.540283090260929E-010
 -1.740000000000000E-002    7.321490622796172E-010
 -1.730000000000000E-002    9.600268843100438E-010
 -1.720000000000000E-002    1.119471191492170E-009
 -1.710000000000000E-002    1.198087303073604E-009
 -1.700000000000000E-002    1.190710959319527E-009
 -1.690000000000000E-002    1.100225437139169E-009
 -1.680000000000000E-002    9.376405562525512E-010
 -1.670000000000000E-002    7.213742064452442E-010
 -1.660000000000000E-002    4.757535423649069E-010
 -1.650000000000000E-002    2.288266230133388E-010
 -1.640000000000000E-002    9.651878237203216E-012
 -1.630000000000000E-002   -1.547060404217805E-010
 -1.620000000000000E-002   -2.421983436017714E-010
 -1.610000000000000E-002   -2.385338699068043E-010
 -1.600000000000000E-002   -1.393475744580352E-010
 -1.590000000000000E-002    4.846471499418458E-011
 -1.580000000000000E-002    3.064448448786077E-010
 -1.570000000000000E-002    6.054184032047705E-010
 -1.560000000000000E-002    9.075023188120531E-010
 -1.550000000000000E-002    1.169173483203716E-009
 -1.540000000000000E-002    1.345193306049988E-009
 -1.530000000000000E-002    1.393079599876855E-009
 -1.520000000000000E-002    1.277743096356278E-009
 -1.510000000000000E-002    9.758638709914563E-010
 -1.500000000000000E-002    4.795679677786678E-010
 -1.490000000000000E-002   -2.009961998778412E-010
 -1.480000000000000E-002   -1.036508687464542E-009
 -1.470000000000000E-002   -1.978981059868240E-009
 -1.460000000000000E-002   -2.963985307385669E-009
 -1.450000000000000E-002   -3.914539839660717E-009
 -1.440000000000000E-002   -4.746416583761657E-009
 -1.430000000000000E-002   -5.374489342404373E-009
 -1.420000000000000E-002   -5.719625848233041E-009
 -1.410000000000000E-002   -5.715535842651282E-009
 -1.400000000000000E-002   -5.314970102657522E-009
 -1.390000000000000E-002   -4.494678267660810E-009
 -1.380000000000000E-002   -3.258624186134616E-009
 -1.370000000000000E-002   -1.639082124096375E-009
 -1.360000000000000E-002    3.045672635967611E-010
 -1.350000000000000E-002    2.489340782609411E-009
 -1.340000000000000E-002    4.814222976397794E-009
 -1.330000000000000E-002    7.167369397579030E-009
 -1.320000000000000E-002    9.434344262473813E-009
 -1.310000000000000E-002    1.150665565464659E-008
 -1.300000000000000E-002    1.328981151195526E-008
 -1.290000000000000E-002    1.471011910606777E-008
 -1.280000000000000E-002    1.571955276053556E-008
 -1.270000000000000E-002    1.629817508481456E-008
 -1.260000000000000E-002    1.645382172076641E-008
 -1.250000000000000E-002    1.621902340135986E-008
 -1.240000000000000E-002    1.564541824658277E-008
 -1.230000000000000E-002    1.479618261173323E-008
 -1.220000000000000E-002    1.373723713828497E-008
 -1.210000000000000E-002    1.252814985869191E-008
 -1.200000000000000E-002    1.121375568967225E-008
 -1.190000000000000E-002    9.817487773361986E-009
 -1.180000000000000E-002    8.337318262449599E-009
 -1.170000000000000E-002    6.744980495034983E-009
 -1.160000000000000E-002    4.988890731365199E-009
 -1.150000000000000E-002    3.000809018745537E-009
 -1.140000000000000E-002    7.059232037600315E-010
 -1.130000000000000E-002   -1.964275875001944E-009
 -1.120000000000000E-002   -5.057354833068400E-009
 -1.110000000000000E-002   -8.584692019446952E-009
 -1.100000000000000E-002   -1.250699599437346E-008
 -1.090000000000000E-002   -1.672188729894073E-008
 -1.080000000000000E-002   -2.105476616814928E-008
 -1.070000000000000E-002   -2.525395276077635E-008
 -1.060000000000000E-002   -2.899062918834535E-008
 -1.050000000000000E-002   -3.186379094840320E-008
 -1.040000000000000E-002   -3.340992945850259E-008
 -1.030000000000000E-002   -3.311662335474043E-008
 -1.020000000000000E-002   -3.043890039795807E-008
 -1.010000000000000E-002   -2.481693062919741E-008
 -1.000000000000000E-002   -1.569332768752081E-008
 -9.899999999999999E-003   -2.528398167246724E-009
 -9.800000000000000E-003    1.518837384890168E-008
 -9.699999999999999E-003    3.793149411012490E-008
 -9.599999999999999E-003    6.613866425053025E-008
 -9.500000000000000E-003    1.002159758569124E-007
 -9.399999999999999E-003    1.405490471275968E-007
 -9.299999999999999E-003    1.875192153024037E-007
 -9.200000000000000E-003    2.415235903417279E-007
 -9.099999999999999E-003    3.029971282914909E-007
 -8.999999999999999E-003    3.724348116579938E-007
 -8.900000000000000E-003    4.504117590684211E-007
 -8.799999999999999E-003    5.375998274121053E-007
 -8.699999999999999E-003    6.347781435969886E-007
 -8.600000000000000E-003    7.428375871373047E-007
 -8.499999999999999E-003    8.627771090201717E-007
 -8.399999999999999E-003    9.956943069009991E-007
 -8.300000000000000E-003    1.142768451667892E-006
 -8.199999999999999E-003    1.305239020787634E-006
 -8.100000000000000E-003    1.484382140275727E-006
 -8.000000000000000E-003    1.681485215294448E-006
 -7.899999999999999E-003    1.897824760609884E-006
 -7.800000000000000E-003    2.134648161274195E-006
 -7.699999999999999E-003    2.393162064524379E-006
 -7.599999999999999E-003    2.674527785454694E-006
 -7.499999999999999E-003    2.979868375719526E-006
 -7.399999999999999E-003    3.310282685224690E-006
 -7.299999999999999E-003    3.666869345202233E-006
 -7.199999999999999E-003    4.050756098691516E-006
 -7.100000000000000E-003    4.463137092852907E-006
 -6.999999999999999E-003    4.905309004552190E-006
 -6.899999999999999E-003    5.378708408758996E-006
 -6.800000000000000E-003    5.884946254737136E-006
 -6.699999999999999E-003    6.425834932638957E-006
 -6.599999999999999E-003    7.003405059599600E-006
 -6.499999999999999E-003    7.619914145401454E-006
 -6.399999999999999E-003    8.277846060250905E-006
 -6.299999999999999E-003    8.979895395896206E-006
 -6.199999999999999E-003    9.728948032187285E-006
 -6.100000000000000E-003    1.052804944475420E-005
 -5.999999999999999E-003    1.138037370624343E-005
 -5.899999999999999E-003    1.228919085659725E-005
 -5.800000000000000E-003    1.325783281651391E-005
 -5.699999999999999E-003    1.428967560702441E-005
 -5.599999999999999E-003    1.538811942765894E-005
 -5.499999999999999E-003    1.655659151622819E-005
 -5.399999999999999E-003    1.779855544285975E-005
 -5.299999999999999E-003    1.911753945719590E-005
 -5.199999999999999E-003    2.051717044855241E-005
 -5.099999999999999E-003    2.200122958594984E-005
 -4.999999999999999E-003    2.357370775319327E-005
 -4.899999999999999E-003    2.523886293898362E-005
 -4.799999999999999E-003    2.700128988633514E-005
 -4.699999999999999E-003    2.886597189157385E-005
 -4.599999999999999E-003    3.083832999265091E-005
 -4.499999999999999E-003    3.292426184343302E-005
 -4.399999999999999E-003    3.513016439463722E-005
 -4.299999999999999E-003    3.746293929652629E-005
 -4.199999999999999E-003    3.992998143685467E-005
 -4.099999999999999E-003    4.253916398706684E-005
 -3.999999999999999E-003    4.529879358911813E-005
 -3.899999999999999E-003    4.821758088030068E-005
 -3.799999999999999E-003    5.130459565829138E-005
 -3.699999999999999E-003    5.456922127186230E-005
 -3.599999999999999E-003    5.802112639593256E-005
 -3.499999999999999E-003    6.167024597044308E-005
 -3.399999999999999E-003    6.552678239991712E-005
 -3.299999999999999E-003    6.960122454306025E-005
 -3.199999999999999E-003    7.390437314823620E-005
 -3.099999999999999E-003    7.844742712135695E-005
 -2.999999999999999E-003    8.324200796419715E-005
 -2.899999999999999E-003    8.830030048803892E-005
 -2.799999999999999E-003    9.363510390613223E-005
 -2.699999999999999E-003    9.925994607981070E-005
 -2.599999999999999E-003    1.051891846574400E-004
 -2.499999999999999E-003    1.114380573500291E-004
 -2.399999999999999E-003    1.180227945076157E-004
 -2.299999999999999E-003    1.249606343648841E-004
 -2.199999999999999E-003    1.322698520184928E-004
 -2.099999999999999E-003    1.399697844519762E-004
 -1.999999999999999E-003    1.480808015891406E-004
 -1.899999999999999E-003    1.566242944738647E-004
 -1.799999999999999E-003    1.656226375714495E-004
 -1.699999999999999E-003    1.750991450759792E-004
 -1.599999999999999E-003    1.850780208219988E-004
 -1.499999999999999E-003    1.955843544057565E-004
 -1.399999999999999E-003    2.066441002303974E-004
 -1.299999999999999E-003    2.182841004653220E-004
 -1.199999999999999E-003    2.305320797252506E-004
 -1.099999999999999E-003    2.434167536092802E-004
 -9.999999999999989E-004    2.569678766885360E-004
 -8.999999999999990E-004    2.712163156750316E-004
 -7.999999999999990E-004    2.861942423433747E-004
 -6.999999999999989E-004    3.019351850581648E-004
 -5.999999999999990E-004    3.184741857726126E-004
 -4.999999999999989E-004    3.358479157307272E-004
 -3.999999999999989E-004    3.540947981499093E-004
 -2.999999999999989E-004    3.732550734209492E-004
 -1.999999999999989E-004    3.933709075240468E-004
 -9.999999999999892E-005    4.144864149946303E-004
  1.084202172485504E-018    4.366477191798893E-004
  1.000000000000011E-004    4.599029407968791E-004
  2.000000000000011E-004    4.843022137049705E-004
  3.000000000000011E-004    5.098976722423533E-004
  4.000000000000011E-004    5.367434306692430E-004
  5.000000000000011E-004    5.648955631106546E-004
  6.000000000000011E-004    5.944121980107553E-004
  7.000000000000011E-004    6.253535266086077E-004
  8.000000000000011E-004    6.577816324996503E-004
  9.000000000000012E-004    6.917608725696379E-004
  1.000000000000001E-003    7.273577963774482E-004
  1.100000000000001E-003    7.646412300085708E-004
  1.200000000000001E-003    8.036826064485145E-004
  1.300000000000001E-003    8.445557642975635E-004
  1.400000000000001E-003    8.873373335658941E-004
  1.500000000000001E-003    9.321067619613617E-004
  1.600000000000001E-003    9.789464939139864E-004
  1.700000000000001E-003    1.027942063418552E-003
  1.800000000000001E-003    1.079182121690196E-003
  1.900000000000001E-003    1.132758551500093E-003
  2.000000000000001E-003    1.188766603321917E-003
  2.100000000000001E-003    1.247304927986207E-003
  2.200000000000001E-003    1.308475315214023E-003
  2.300000000000001E-003    1.372383154438145E-003
  2.400000000000001E-003    1.439137255837438E-003
  2.500000000000001E-003    1.508849829974222E-003
  2.600000000000001E-003    1.581636594655367E-003
  2.700000000000001E-003    1.657616872816853E-003
  2.800000000000001E-003    1.736913856521091E-003
  2.900000000000001E-003    1.819654277693936E-003
  3.000000000000001E-003    1.905968931747418E-003
  3.100000000000001E-003    1.995992568234905E-003
  3.200000000000001E-003    2.089864047945371E-003
  3.300000000000001E-003    2.187726702701893E-003
  3.400000000000001E-003    2.289728288101314E-003
  3.500000000000001E-003    2.396021057773171E-003
  3.600000000000001E-003    2.506762198946918E-003
  3.700000000000001E-003    2.622113457385538E-003
  3.800000000000001E-003    2.742241227739844E-003
  3.900000000000001E-003    2.867317280857980E-003
  4.000000000000001E-003    2.997518169600581E-003
  4.100000000000001E-003    3.133025001558385E-003
  4.200000000000001E-003    3.274024403332923E-003
  4.300000000000001E-003    3.420707319341354E-003
  4.400000000000001E-003    3.573269907323606E-003
  4.500000000000001E-003    3.731913157266370E-003
  4.600000000000002E-003    3.896842937282016E-003
  4.700000000000001E-003    4.068270179493386E-003
  4.800000000000001E-003    4.246410695926215E-003
  4.900000000000002E-003    4.431485358959857E-003
  5.000000000000001E-003    4.623719861944009E-003
  5.100000000000001E-003    4.823346110029528E-003
  5.200000000000001E-003    5.030599811824601E-003
  5.300000000000002E-003    5.245723550797188E-003
  5.400000000000001E-003    5.468964785304362E-003
  5.500000000000001E-003    5.700576865360441E-003
  5.600000000000002E-003    5.940818804053607E-003
  5.700000000000001E-003    6.189955319573276E-003
  5.800000000000001E-003    6.448257101057038E-003
  5.900000000000002E-003    6.716000524295773E-003
  6.000000000000001E-003    6.993468295259249E-003
  6.100000000000001E-003    7.280948320583952E-003
  6.200000000000002E-003    7.578734392804046E-003
  6.300000000000002E-003    7.887125796892004E-003
  6.400000000000001E-003    8.206427773552792E-003
  6.500000000000001E-003    8.536949784466544E-003
  6.600000000000002E-003    8.879007455280254E-003
  6.700000000000001E-003    9.232920887969233E-003
  6.800000000000001E-003    9.599015644539083E-003
  6.900000000000002E-003    9.977621172708485E-003
  7.000000000000001E-003    1.036907314010812E-002
  7.100000000000001E-003    1.077370974913057E-002
  7.200000000000002E-003    1.119187582225395E-002
  7.300000000000002E-003    1.162391851039218E-002
  7.400000000000001E-003    1.207019067745269E-002
  7.500000000000001E-003    1.253104909849984E-002
  7.600000000000002E-003    1.300685475460962E-002
  7.700000000000001E-003    1.349797181110075E-002
  7.800000000000001E-003    1.400476969831254E-002
  7.900000000000001E-003    1.452762115289290E-002
  8.000000000000002E-003    1.506690131513873E-002
  8.100000000000001E-003    1.562298969677391E-002
  8.200000000000001E-003    1.619626839347582E-002
  8.300000000000002E-003    1.678712227901661E-002
  8.400000000000001E-003    1.739593819396875E-002
  8.500000000000002E-003    1.802310527137636E-002
  8.600000000000002E-003    1.866901537756662E-002
  8.700000000000001E-003    1.933405888900855E-002
  8.800000000000002E-003    2.001863048972228E-002
  8.900000000000002E-003    2.072312139071271E-002
  9.000000000000001E-003    2.144792686546582E-002
  9.100000000000002E-003    2.219343829444687E-002
  9.200000000000002E-003    2.296004947428524E-002
  9.300000000000001E-003    2.374815017544694E-002
  9.400000000000002E-003    2.455813011648948E-002
  9.500000000000001E-003    2.539037800287351E-002
  9.600000000000001E-003    2.624527668900404E-002
  9.700000000000002E-003    2.712321132365182E-002
  9.800000000000001E-003    2.802455669462616E-002
  9.900000000000001E-003    2.894968870637491E-002
  1.000000000000000E-002    2.989897567054879E-002
  1.010000000000000E-002    3.087278203974471E-002
  1.020000000000000E-002    3.187146862799647E-002
  1.030000000000000E-002    3.289538788925416E-002
  1.040000000000000E-002    3.394488286436539E-002
  1.050000000000000E-002    3.502029043271185E-002
  1.060000000000000E-002    3.612194191669473E-002
  1.070000000000000E-002    3.725015586795938E-002
  1.080000000000000E-002    3.840524084458274E-002
  1.090000000000000E-002    3.958749567288967E-002
  1.100000000000000E-002    4.079720998782625E-002
  1.110000000000000E-002    4.203465950245622E-002
  1.120000000000000E-002    4.330010235333076E-002
  1.130000000000000E-002    4.459378980651964E-002
  1.140000000000000E-002    4.591595615419520E-002
  1.150000000000000E-002    4.726681828088636E-002
  1.160000000000000E-002    4.864657943268835E-002
  1.170000000000000E-002    5.005542464848447E-002
  1.180000000000000E-002    5.149352152679357E-002
  1.190000000000000E-002    5.296101667887707E-002
  1.200000000000000E-002    5.445803727273926E-002
  1.210000000000000E-002    5.598469270491840E-002
  1.220000000000000E-002    5.754106886443072E-002
  1.230000000000000E-002    5.912722957220259E-002
  1.240000000000000E-002    6.074321320466314E-002
  1.250000000000000E-002    6.238903365354803E-002
  1.260000000000000E-002    6.406468095534884E-002
  1.270000000000000E-002    6.577011897052314E-002
  1.280000000000000E-002    6.750528000787667E-002
  1.290000000000000E-002    6.927006427500139E-002
  1.300000000000000E-002    7.106435754119790E-002
  1.310000000000000E-002    7.288799881250398E-002
  1.320000000000000E-002    7.474080036291489E-002
  1.330000000000000E-002    7.662254747662933E-002
  1.340000000000000E-002    7.853299017658046E-002
  1.350000000000000E-002    8.047183616488904E-002
  1.360000000000000E-002    8.243876391540642E-002
  1.370000000000000E-002    8.443341003243182E-002
  1.380000000000000E-002    8.645538267252764E-002
  1.390000000000000E-002    8.850424101496987E-002
  1.400000000000000E-002    9.057950894612467E-002
  1.410000000000000E-002    9.268067828269992E-002
  1.420000000000000E-002    9.480718362531673E-002
  1.430000000000000E-002    9.695843279783656E-002
  1.440000000000000E-002    9.913377277209670E-002
  1.450000000000000E-002    0.101332519432707     
  1.460000000000000E-002    0.103553937891310     
  1.470000000000000E-002    0.105797244519179     
  1.480000000000000E-002    0.108061621287588     
  1.490000000000000E-002    0.110346184141049     
  1.500000000000000E-002    0.112650012078500     
  1.510000000000000E-002    0.114972131906232     
  1.520000000000000E-002    0.117311517947262     
  1.530000000000000E-002    0.119667098843268     
  1.540000000000000E-002    0.122037748458677     
  1.550000000000000E-002    0.124422290469372     
  1.560000000000000E-002    0.126819490333493     
  1.570000000000000E-002    0.129228063502319     
  1.580000000000000E-002    0.131646680621030     
  1.590000000000000E-002    0.134073939269895     
  1.600000000000000E-002    0.136508391219028     
  1.610000000000000E-002    0.138948551625217     
  1.620000000000000E-002    0.141392845772005     
  1.630000000000000E-002    0.143839687069895     
  1.640000000000000E-002    0.146287387908635     
  1.650000000000000E-002    0.148734223435938     
  1.660000000000000E-002    0.151178421080502     
  1.670000000000000E-002    0.153618140837086     
  1.680000000000000E-002    0.156051497179768     
  1.690000000000000E-002    0.158476533823795     
  1.700000000000000E-002    0.160891259187638     
  1.710000000000000E-002    0.163293599899734     
  1.720000000000000E-002    0.165681455142215     
  1.730000000000000E-002    0.168052648226208     
  1.740000000000000E-002    0.170404952386636     
  1.750000000000000E-002    0.172736105398900     
  1.760000000000000E-002    0.175043763680546     
  1.770000000000000E-002    0.177325552407181     
  1.780000000000000E-002    0.179579047657309     
  1.790000000000000E-002    0.181801742718867     
  1.800000000000000E-002    0.183991128381850     
  1.810000000000000E-002    0.186144601827286     
  1.820000000000000E-002    0.188259542651721     
  1.830000000000000E-002    0.190333264137935     
  1.840000000000000E-002    0.192363057010612     
  1.850000000000000E-002    0.194346144494614     
  1.860000000000000E-002    0.196279731828910     
  1.870000000000000E-002    0.198160961175399     