 -4.000000000000000E-002    0.000000000000000E+000
 -3.990000000000000E-002    0.000000000000000E+000
 -3.980000000000000E-002    0.000000000000000E+000
 -3.970000000000000E-002    0.000000000000000E+000
 -3.960000000000000E-002    0.000000000000000E+000
 -3.950000000000000E-002    0.000000000000000E+000
 -3.940000000000000E-002    0.000000000000000E+000
 -3.930000000000000E-002    0.000000000000000E+000
 -3.920000000000000E-002    0.000000000000000E+000
 -3.910000000000000E-002    0.000000000000000E+000
 -3.900000000000000E-002    0.000000000000000E+000
 -3.890000000000000E-002    0.000000000000000E+000
 -3.880000000000000E-002    0.000000000000000E+000
 -3.870000000000000E-002    0.000000000000000E+000
 -3.860000000000000E-002    0.000000000000000E+000
 -3.850000000000000E-002    0.000000000000000E+000
 -3.840000000000000E-002    0.000000000000000E+000
 -3.830000000000000E-002    0.000000000000000E+000
 -3.820000000000000E-002    0.000000000000000E+000
 -3.810000000000000E-002    0.000000000000000E+000
 -3.800000000000000E-002    0.000000000000000E+000
 -3.790000000000000E-002    0.000000000000000E+000
 -3.780000000000000E-002    0.000000000000000E+000
 -3.770000000000000E-002    0.000000000000000E+000
 -3.760000000000000E-002    0.000000000000000E+000
 -3.750000000000000E-002    0.000000000000000E+000
 -3.740000000000000E-002    0.000000000000000E+000
 -3.730000000000000E-002    0.000000000000000E+000
 -3.720000000000000E-002    0.000000000000000E+000
 -3.710000000000000E-002    0.000000000000000E+000
 -3.700000000000000E-002    0.000000000000000E+000
 -3.690000000000000E-002    0.000000000000000E+000
 -3.680000000000000E-002    0.000000000000000E+000
 -3.670000000000000E-002    0.000000000000000E+000
 -3.660000000000000E-002    0.000000000000000E+000
 -3.650000000000000E-002    0.000000000000000E+000
 -3.640000000000000E-002    0.000000000000000E+000
 -3.630000000000000E-002    0.000000000000000E+000
 -3.620000000000000E-002    0.000000000000000E+000
 -3.610000000000000E-002    0.000000000000000E+000
 -3.600000000000000E-002    0.000000000000000E+000
 -3.590000000000000E-002    0.000000000000000E+000
 -3.580000000000000E-002    0.000000000000000E+000
 -3.570000000000000E-002    0.000000000000000E+000
 -3.560000000000000E-002    0.000000000000000E+000
 -3.550000000000000E-002    0.000000000000000E+000
 -3.540000000000000E-002    0.000000000000000E+000
 -3.530000000000000E-002    0.000000000000000E+000
 -3.520000000000000E-002    0.000000000000000E+000
 -3.510000000000000E-002    0.000000000000000E+000
 -3.500000000000000E-002    0.000000000000000E+000
 -3.490000000000000E-002    0.000000000000000E+000
 -3.480000000000000E-002    0.000000000000000E+000
 -3.470000000000000E-002    0.000000000000000E+000
 -3.460000000000000E-002    0.000000000000000E+000
 -3.450000000000000E-002    0.000000000000000E+000
 -3.440000000000000E-002    0.000000000000000E+000
 -3.430000000000000E-002    0.000000000000000E+000
 -3.420000000000000E-002    0.000000000000000E+000
 -3.410000000000000E-002    0.000000000000000E+000
 -3.400000000000000E-002    0.000000000000000E+000
 -3.390000000000000E-002    0.000000000000000E+000
 -3.380000000000000E-002    0.000000000000000E+000
 -3.370000000000000E-002    0.000000000000000E+000
 -3.360000000000000E-002    0.000000000000000E+000
 -3.350000000000000E-002    0.000000000000000E+000
 -3.340000000000000E-002    0.000000000000000E+000
 -3.330000000000000E-002    0.000000000000000E+000
 -3.320000000000000E-002    0.000000000000000E+000
 -3.310000000000000E-002    0.000000000000000E+000
 -3.300000000000000E-002    0.000000000000000E+000
 -3.290000000000000E-002    0.000000000000000E+000
 -3.280000000000000E-002    0.000000000000000E+000
 -3.270000000000000E-002    0.000000000000000E+000
 -3.260000000000000E-002    0.000000000000000E+000
 -3.250000000000000E-002    0.000000000000000E+000
 -3.240000000000000E-002    0.000000000000000E+000
 -3.230000000000000E-002    0.000000000000000E+000
 -3.220000000000000E-002    0.000000000000000E+000
 -3.210000000000000E-002    0.000000000000000E+000
 -3.200000000000000E-002    0.000000000000000E+000
 -3.190000000000000E-002    0.000000000000000E+000
 -3.180000000000000E-002    0.000000000000000E+000
 -3.170000000000000E-002    0.000000000000000E+000
 -3.160000000000000E-002    0.000000000000000E+000
 -3.150000000000000E-002    0.000000000000000E+000
 -3.140000000000000E-002    0.000000000000000E+000
 -3.130000000000000E-002    0.000000000000000E+000
 -3.120000000000000E-002    0.000000000000000E+000
 -3.110000000000000E-002    0.000000000000000E+000
 -3.100000000000000E-002    0.000000000000000E+000
 -3.090000000000000E-002    0.000000000000000E+000
 -3.080000000000000E-002    0.000000000000000E+000
 -3.070000000000000E-002    0.000000000000000E+000
 -3.060000000000000E-002    0.000000000000000E+000
 -3.050000000000000E-002    0.000000000000000E+000
 -3.040000000000000E-002    0.000000000000000E+000
 -3.030000000000000E-002    0.000000000000000E+000
 -3.020000000000000E-002    0.000000000000000E+000
 -3.010000000000000E-002    0.000000000000000E+000
 -3.000000000000000E-002    0.000000000000000E+000
 -2.990000000000000E-002    0.000000000000000E+000
 -2.980000000000000E-002    0.000000000000000E+000
 -2.970000000000000E-002    0.000000000000000E+000
 -2.960000000000000E-002   -6.414635304221270E-048
 -2.950000000000000E-002   -1.282927060844254E-047
 -2.940000000000000E-002   -1.282927060844254E-047
 -2.930000000000000E-002   -1.282927060844254E-047
 -2.920000000000000E-002   -6.414635304221270E-048
 -2.910000000000000E-002   -2.907968004580309E-047
 -2.900000000000000E-002   -1.319017541061084E-047
 -2.890000000000000E-002    3.554613931810920E-048
 -2.880000000000000E-002    4.681322919834726E-047
 -2.870000000000000E-002    1.038231373320021E-046
 -2.860000000000000E-002    1.486588469101045E-046
 -2.850000000000000E-002    2.684115314081667E-046
 -2.840000000000000E-002    3.795718483274235E-046
 -2.830000000000000E-002    4.884733038616454E-046
 -2.820000000000000E-002    5.369442395524346E-046
 -2.810000000000000E-002    1.097968881961473E-045
 -2.800000000000000E-002    8.248053431261569E-046
 -2.790000000000000E-002    5.021564629128479E-046
 -2.780000000000000E-002   -5.315498661439207E-047
 -2.770000000000000E-002   -9.529951845366451E-046
 -2.760000000000000E-002   -1.825721157021526E-045
 -2.750000000000000E-002   -4.460406930239054E-045
 -2.740000000000000E-002   -7.893291016346795E-045
 -2.730000000000000E-002   -1.242525118179010E-044
 -2.720000000000000E-002   -1.850733646440286E-044
 -2.710000000000000E-002   -2.594993949669602E-044
 -2.700000000000000E-002   -3.378954297356791E-044
 -2.690000000000000E-002   -3.998731815254933E-044
 -2.680000000000000E-002   -4.283741276042571E-044
 -2.670000000000000E-002   -3.691587315045175E-044
 -2.660000000000000E-002   -1.712370253211693E-044
 -2.650000000000000E-002    2.528633804212403E-044
 -2.640000000000000E-002    9.855117004189070E-044
 -2.630000000000000E-002    2.116880312247919E-043
 -2.620000000000000E-002    3.721121837190467E-043
 -2.610000000000000E-002    5.837656468342255E-043
 -2.600000000000000E-002    8.391178179344602E-043
 -2.590000000000000E-002    1.115362924701919E-042
 -2.580000000000000E-002    1.367343794993996E-042
 -2.570000000000000E-002    1.518849041774326E-042
 -2.560000000000000E-002    1.456586039598746E-042
 -2.550000000000000E-002    1.022226362787216E-042
 -2.540000000000000E-002    1.961793893247934E-044
 -2.530000000000000E-002   -1.776588030779285E-042
 -2.520000000000000E-002   -4.591733502947031E-042
 -2.510000000000000E-002   -8.602457636255192E-042
 -2.500000000000000E-002   -1.386290022355175E-041
 -2.490000000000000E-002   -2.020227094734337E-041
 -2.480000000000000E-002   -2.709462621976030E-041
 -2.470000000000000E-002   -3.351748406440029E-041
 -2.460000000000000E-002   -3.779994824841271E-041
 -2.450000000000000E-002   -3.751321589382263E-041
 -2.440000000000000E-002   -2.943707491762779E-041
 -2.430000000000000E-002   -9.658853858235865E-042
 -2.420000000000000E-002    2.609996035382244E-041
 -2.410000000000000E-002    8.187428178313204E-041
 -2.400000000000000E-002    1.604687884271862E-040
 -2.390000000000000E-002    2.620599857742338E-040
 -2.380000000000000E-002    3.823879814296655E-040
 -2.370000000000000E-002    5.106346315513051E-040
 -2.360000000000000E-002    6.272107577503799E-040
 -2.350000000000000E-002    7.018346283052434E-040
 -2.340000000000000E-002    6.924786995824141E-040
 -2.330000000000000E-002    5.459449779489586E-040
 -2.320000000000000E-002    2.010073951443539E-040
 -2.310000000000000E-002   -4.048719122189510E-040
 -2.300000000000000E-002   -1.324314913404643E-039
 -2.290000000000000E-002   -2.583665309760259E-039
 -2.280000000000000E-002   -4.161470609425736E-039
 -2.270000000000000E-002   -5.962808765307847E-039
 -2.260000000000000E-002   -7.791864416823701E-039
 -2.250000000000000E-002   -9.326991129756172E-039
 -2.240000000000000E-002   -1.010456296400982E-038
 -2.230000000000000E-002   -9.520007595147984E-039
 -2.220000000000000E-002   -6.856191671774661E-039
 -2.210000000000000E-002   -1.350043076311687E-039
 -2.200000000000000E-002    7.692533006669575E-039
 -2.190000000000000E-002    2.072655598573528E-038
 -2.180000000000000E-002    3.774261370390670E-038
 -2.170000000000000E-002    5.799610849548982E-038
 -2.160000000000000E-002    7.971573371360385E-038
 -2.150000000000000E-002    9.983346108729499E-038
 -2.140000000000000E-002    1.137992703409413E-037
 -2.130000000000000E-002    1.155627243934831E-037
 -2.120000000000000E-002    9.782036715066892E-038
 -2.110000000000000E-002    5.263416884038696E-038
 -2.100000000000000E-002   -2.748563561198036E-038
 -2.090000000000000E-002   -1.479692351057400E-037
 -2.080000000000000E-002   -3.100509147727893E-037
 -2.070000000000000E-002   -5.082026969477815E-037
 -2.060000000000000E-002   -7.273707361607668E-037
 -2.050000000000000E-002   -9.404048567248432E-037
 -2.040000000000000E-002   -1.106251717284940E-036
 -2.030000000000000E-002   -1.169656801351939E-036
 -2.020000000000000E-002   -1.063231811567037E-036
 -2.010000000000000E-002   -7.128152488973005E-037
 -2.000000000000000E-002   -4.690709285648167E-038
 -1.990000000000000E-002    9.892956409998440E-037
 -1.980000000000000E-002    2.415337983725377E-036
 -1.970000000000000E-002    4.193275364656152E-036
 -1.960000000000000E-002    6.203766179893194E-036
 -1.950000000000000E-002    8.223799574731211E-036
 -1.940000000000000E-002    9.910764619376238E-036
 -1.930000000000000E-002    1.079895342769848E-035
 -1.920000000000000E-002    1.031545191722837E-035
 -1.910000000000000E-002    7.822614510795018E-036
 -1.900000000000000E-002    2.693391532952086E-036
 -1.890000000000000E-002   -5.576793646184941E-036
 -1.880000000000000E-002   -1.722222876994560E-035
 -1.870000000000000E-002   -3.203026233660189E-035
 -1.860000000000000E-002   -4.915126631316298E-035
 -1.850000000000000E-002   -6.692053738052347E-035
 -1.840000000000000E-002   -8.272798913951775E-035
 -1.830000000000000E-002   -9.298051269570707E-035
 -1.820000000000000E-002   -9.320871863121066E-035
 -1.810000000000000E-002   -7.837007718243274E-035
 -1.800000000000000E-002   -4.339295978089808E-035
 -1.790000000000000E-002    1.601220764307871E-035
 -1.780000000000000E-002    1.022805371949595E-034
 -1.770000000000000E-002    2.147096535145899E-034
 -1.760000000000000E-002    3.480755956537609E-034
 -1.750000000000000E-002    4.913240387520334E-034
 -1.740000000000000E-002    6.265820683955217E-034
 -1.730000000000000E-002    7.287977400134908E-034
 -1.720000000000000E-002    7.663530397594389E-034
 -1.710000000000000E-002    7.029982730302158E-034
 -1.700000000000000E-002    5.013969554883080E-034
 -1.690000000000000E-002    1.284561388990668E-034
 -1.680000000000000E-002   -4.376052990346344E-034
 -1.670000000000000E-002   -1.198777894839696E-033
 -1.660000000000000E-002   -2.128073164082258E-033
 -1.650000000000000E-002   -3.160745544673974E-033
 -1.640000000000000E-002   -4.187466280516933E-033
 -1.630000000000000E-002   -5.051354880090485E-033
 -1.620000000000000E-002   -5.550993409605905E-033
 -1.610000000000000E-002   -5.451549520800463E-033
 -1.600000000000000E-002   -4.505750440807701E-033
 -1.590000000000000E-002   -2.485705746434950E-033
 -1.580000000000000E-002    7.746634776750542E-034
 -1.570000000000000E-002    5.328602575822184E-033
 -1.560000000000000E-002    1.106100459225531E-032
 -1.550000000000000E-002    1.763493754539646E-032
 -1.540000000000000E-002    2.444910255864764E-032
 -1.530000000000000E-002    3.061707676669425E-032
 -1.520000000000000E-002    3.498042246413029E-032
 -1.510000000000000E-002    3.616734203594951E-032
 -1.500000000000000E-002    3.270668446189219E-032
 -1.490000000000000E-002    2.320259020992806E-032
 -1.480000000000000E-002    6.567999563643079E-033
 -1.470000000000000E-002   -1.769397725757084E-032
 -1.460000000000000E-002   -4.918337036519304E-032
 -1.450000000000000E-002   -8.630669138176243E-032
 -1.440000000000000E-002   -1.260377346223670E-031
 -1.430000000000000E-002   -1.637931620218127E-031
 -1.420000000000000E-002   -1.934857498182235E-031
 -1.410000000000000E-002   -2.078157777717648E-031
 -1.400000000000000E-002   -1.988498927668923E-031
 -1.390000000000000E-002   -1.589121794638308E-031
 -1.380000000000000E-002   -8.177739024950279E-032
 -1.370000000000000E-002    3.589220813960403E-032
 -1.360000000000000E-002    1.929831912387773E-031
 -1.350000000000000E-002    3.824181759617371E-031
 -1.340000000000000E-002    5.899311003140281E-031
 -1.330000000000000E-002    7.934125964444755E-031
 -1.320000000000000E-002    9.631325177259320E-031
 -1.310000000000000E-002    1.063126712138429E-030
 -1.300000000000000E-002    1.053978075393530E-030
 -1.290000000000000E-002    8.971048853036528E-031
 -1.280000000000000E-002    5.604848001889237E-031
 -1.270000000000000E-002    2.552838505777348E-032
 -1.260000000000000E-002   -7.054708247668425E-031
 -1.250000000000000E-002   -1.602152555606164E-030
 -1.240000000000000E-002   -2.600286824272568E-030
 -1.230000000000000E-002   -3.598668375429562E-030
 -1.220000000000000E-002   -4.460090449962282E-030
 -1.210000000000000E-002   -5.017713801943849E-030
 -1.200000000000000E-002   -5.087812497673716E-030
 -1.190000000000000E-002   -4.489342264853277E-030
 -1.180000000000000E-002   -3.069974220023856E-030
 -1.170000000000000E-002   -7.371835651140885E-031
 -1.160000000000000E-002    2.508211117785688E-030
 -1.150000000000000E-002    6.539865643529046E-030
 -1.140000000000000E-002    1.108005315700592E-029
 -1.130000000000000E-002    1.568587810663478E-029
 -1.120000000000000E-002    1.975355214713031E-029
 -1.110000000000000E-002    2.254627823371518E-029
 -1.100000000000000E-002    2.324985817108454E-029
 -1.090000000000000E-002    2.105763619719318E-029
 -1.080000000000000E-002    1.528295184681973E-029
 -1.070000000000000E-002    5.492752897346540E-030
 -1.060000000000000E-002   -8.348836778714012E-030
 -1.050000000000000E-002   -2.574339201713271E-029
 -1.040000000000000E-002   -4.554832089049239E-029
 -1.030000000000000E-002   -6.591806473518591E-029
 -1.020000000000000E-002   -8.432119322716485E-029
 -1.010000000000000E-002   -9.765551851241580E-029
 -1.000000000000000E-002   -1.024773917452042E-028
 -9.899999999999999E-003   -9.535109137068981E-029
 -9.800000000000000E-003   -7.330944961184982E-029
 -9.699999999999999E-003   -3.439959277737362E-029
 -9.599999999999999E-003    2.173271497827509E-029
 -9.500000000000000E-003    9.328588235627472E-029
 -9.399999999999999E-003    1.758555948301973E-028
 -9.299999999999999E-003    2.621923129364180E-028
 -9.200000000000000E-003    3.422590087777049E-028
 -9.099999999999999E-003    4.036750510582058E-028
 -8.999999999999999E-003    4.326057051851961E-028
 -8.900000000000000E-003    4.151181278366067E-028
 -8.799999999999999E-003    3.389661262583656E-028
 -8.699999999999999E-003    1.956999333445505E-028
 -8.600000000000000E-003   -1.707732497846314E-029
 -8.499999999999999E-003   -2.935595700431718E-028
 -8.399999999999999E-003   -6.180063674349198E-028
 -8.300000000000000E-003   -9.637816778879328E-028
 -8.199999999999999E-003   -1.293517534587113E-027
 -8.100000000000000E-003   -1.560713466465111E-027
 -8.000000000000000E-003   -1.712986074771427E-027
 -7.899999999999999E-003   -1.697030911411289E-027
 -7.800000000000000E-003   -1.465152492144454E-027
 -7.699999999999999E-003   -9.829727525407873E-028
 -7.599999999999999E-003   -2.376618510576014E-028
 -7.499999999999999E-003    7.542186632951168E-028
 -7.399999999999999E-003    1.940381398341890E-027
 -7.299999999999999E-003    3.229232278386998E-027
 -7.199999999999999E-003    4.490282539997991E-027
 -7.100000000000000E-003    5.559620836489593E-027
 -6.999999999999999E-003    6.251168620922452E-027
 -6.899999999999999E-003    6.373895346256457E-027
 -6.800000000000000E-003    5.754443015958835E-027
 -6.699999999999999E-003    4.263769898225163E-027
 -6.599999999999999E-003    1.845521984610442E-027
 -6.499999999999999E-003   -1.457005577364797E-027
 -6.399999999999999E-003   -5.479135774904350E-027
 -6.299999999999999E-003   -9.922493172116482E-027
 -6.199999999999999E-003   -1.435622723340920E-026
 -6.100000000000000E-003   -1.823523457805197E-026
 -5.999999999999999E-003   -2.093767574475810E-026
 -5.899999999999999E-003   -2.182214027544890E-026
 -5.800000000000000E-003   -2.030250295898392E-026
 -5.699999999999999E-003   -1.593560709927598E-026
 -5.599999999999999E-003   -8.514112642578809E-027
 -5.499999999999999E-003    1.845878605377177E-027
 -5.399999999999999E-003    1.463493367527562E-026
 -5.299999999999999E-003    2.891155463772780E-026
 -5.199999999999999E-003    4.330767300258038E-026
 -5.099999999999999E-003    5.608915697203235E-026
 -4.999999999999999E-003    6.527791334156553E-026
 -4.899999999999999E-003    6.883606740566215E-026
 -4.799999999999999E-003    6.490512989342307E-026
 -4.699999999999999E-003    5.208376487954684E-026
 -4.599999999999999E-003    2.971929218846519E-026
 -4.499999999999999E-003   -1.820551802032230E-027
 -4.399999999999999E-003   -4.093475822848368E-026
 -4.299999999999999E-003   -8.467709853021580E-026
 -4.199999999999999E-003   -1.287845867456587E-025
 -4.099999999999999E-003   -1.678785727590850E-025
 -3.999999999999999E-003   -1.958567813541246E-025
 -3.899999999999999E-003   -2.064747260006010E-025
 -3.799999999999999E-003   -1.940915132402698E-025
 -3.699999999999999E-003   -1.545274674305480E-025
 -3.599999999999999E-003   -8.595344829092994E-026
 -3.499999999999999E-003    1.029147156244013E-026
 -3.399999999999999E-003    1.290744655370066E-025
 -3.299999999999999E-003    2.611624288649451E-025
 -3.199999999999999E-003    3.933516041038059E-025
 -3.099999999999999E-003    5.091262080321598E-025
 -2.999999999999999E-003    5.898942874830813E-025
 -2.899999999999999E-003    6.167897419827946E-025
 -2.799999999999999E-003    5.729560158408416E-025
 -2.699999999999999E-003    4.461447778169877E-025
 -2.599999999999999E-003    2.313847335272977E-025
 -2.499999999999999E-003   -6.659420895335131E-026
 -2.399999999999999E-003   -4.315419969323974E-025
 -2.299999999999999E-003   -8.348475806064595E-025
 -2.199999999999999E-003   -1.236019789823104E-024
 -2.099999999999999E-003   -1.584749762939665E-024
 -1.999999999999999E-003   -1.824688914093275E-024
 -1.899999999999999E-003   -1.898888373888712E-024
 -1.799999999999999E-003   -1.756636989913009E-024
 -1.699999999999999E-003   -1.361194493822710E-024
 -1.599999999999999E-003   -6.976921378535047E-025
 -1.499999999999999E-003    2.197247218326057E-025
 -1.399999999999999E-003    1.342563943118928E-024
 -1.299999999999999E-003    2.585538760510469E-024
 -1.199999999999999E-003    3.827983569498824E-024
 -1.099999999999999E-003    4.919878755350921E-024
 -9.999999999999989E-004    5.692841930776864E-024
 -8.999999999999990E-004    5.975916166490576E-024
 -7.999999999999990E-004    5.615395582867897E-024
 -6.999999999999989E-004    4.497233195433621E-024
 -5.999999999999990E-004    2.569966402457750E-024
 -4.999999999999989E-004   -1.344709104898719E-025
 -3.999999999999989E-004   -3.484989360796402E-024
 -2.999999999999989E-004   -7.243688989879508E-024
 -1.999999999999989E-004   -1.106904060899482E-023
 -9.999999999999892E-005   -1.453196984590500E-023
  1.084202172485504E-018   -1.714590027357429E-023
  1.000000000000011E-004   -1.841028691873715E-023
  2.000000000000011E-004   -1.786559407794565E-023
  3.000000000000011E-004   -1.515578892715045E-023
  4.000000000000011E-004   -1.009273241587333E-023
  5.000000000000011E-004   -2.715341184409514E-024
  6.000000000000011E-004    6.664476493099667E-024
  7.000000000000011E-004    1.743730700812146E-023
  8.000000000000011E-004    2.870067048500024E-023
  9.000000000000012E-004    3.929809501839917E-023
  1.000000000000001E-003    4.789563776006307E-023
  1.100000000000001E-003    5.309519258580228E-023
  1.200000000000001E-003    5.357912897744095E-023
  1.300000000000001E-003    4.827639477575024E-023
  1.400000000000001E-003    3.653541322611857E-023
  1.500000000000001E-003    1.828549471228427E-023
  1.600000000000001E-003   -5.834150981032811E-024
  1.700000000000001E-003   -3.439906349380198E-023
  1.800000000000001E-003   -6.519752802299208E-023
  1.900000000000001E-003   -9.531704499129896E-023
  2.000000000000001E-003   -1.213272377056188E-022
  2.100000000000001E-003   -1.395578980419431E-022
  2.200000000000001E-003   -1.464597043464161E-022
  2.300000000000001E-003   -1.390230161832626E-022
  2.400000000000001E-003   -1.152190372273805E-022
  2.500000000000001E-003   -7.441770090398172E-023
  2.600000000000001E-003   -1.773054472851273E-023
  2.700000000000001E-003    5.177479858016533E-023
  2.800000000000001E-003    1.290372025875935E-022
  2.900000000000001E-003    2.071807354979378E-022
  3.000000000000001E-003    2.779300314657853E-022
  3.100000000000001E-003    3.322609419145762E-022
  3.200000000000001E-003    3.612579607586490E-022
  3.300000000000001E-003    3.571202405147048E-022
  3.400000000000001E-003    3.142317755844713E-022
  3.500000000000001E-003    2.301864621490337E-022
  3.600000000000001E-003    1.066445735922461E-022
  3.700000000000001E-003   -5.010701965186262E-023
  3.800000000000001E-003   -2.290088731846209E-022
  3.900000000000001E-003   -4.145896768858604E-022
  4.000000000000001E-003   -5.878860662247280E-022
  4.100000000000001E-003   -7.279193869020778E-022
  4.200000000000001E-003   -8.136654795979797E-022
  4.300000000000001E-003   -8.263840028480397E-022
  4.400000000000001E-003   -7.521088719866601E-022
  4.500000000000001E-003   -5.840503104318830E-022
  4.600000000000002E-003   -3.246183893734879E-022
  4.700000000000001E-003    1.322580507384936E-023
  4.800000000000001E-003    4.055663580538887E-022
  4.900000000000002E-003    8.182885115508114E-022
  5.000000000000001E-003    1.209118551600187E-021
  5.100000000000001E-003    1.530942337702084E-021
  5.200000000000001E-003    1.736256595890894E-021
  5.300000000000002E-003    1.782447269682956E-021
  5.400000000000001E-003    1.637445804083144E-021
  5.500000000000001E-003    1.285188135940946E-021
  5.600000000000002E-003    7.302218327538864E-022
  5.700000000000001E-003    7.893638038002020E-025
  5.800000000000001E-003   -8.502302235943637E-022
  5.900000000000002E-003   -1.747007312401629E-021
  6.000000000000001E-003   -2.595349259850776E-021
  6.100000000000001E-003   -3.290174777321621E-021
  6.200000000000002E-003   -3.725542457448259E-021
  6.300000000000002E-003   -3.806541133948317E-021
  6.400000000000001E-003   -3.462025538311147E-021
  6.500000000000001E-003   -2.656896896303096E-021
  6.600000000000002E-003   -1.402462779337264E-021
  6.700000000000001E-003    2.366434364868668E-022
  6.800000000000001E-003    2.140360651804675E-021
  6.900000000000002E-003    4.137014774961961E-021
  7.000000000000001E-003    6.013647014992134E-021
  7.100000000000001E-003    7.532840550504606E-021
  7.200000000000002E-003    8.455294385687234E-021
  7.300000000000002E-003    8.566592663180424E-021
  7.400000000000001E-003    7.705905814759707E-021
  7.500000000000001E-003    5.793727336745278E-021
  7.600000000000002E-003    2.855373342585557E-021
  7.700000000000001E-003   -9.631542327910367E-022
  7.800000000000001E-003   -5.390023229378512E-021
  7.900000000000001E-003   -1.003561429452793E-020
  8.000000000000002E-003   -1.441514572999041E-020
  8.100000000000001E-003   -1.798588891142442E-020
  8.200000000000001E-003   -2.019736308278190E-020
  8.300000000000002E-003   -2.055121233161295E-020
  8.400000000000001E-003   -1.866577413084318E-020
  8.500000000000002E-003   -1.433900060784289E-020
  8.600000000000002E-003   -7.602527602787499E-021
  8.700000000000001E-003    1.240618382512600E-021
  8.800000000000002E-003    1.160160718586009E-020
  8.900000000000002E-003    2.262025118392287E-020
  9.000000000000001E-003    3.321162811996888E-020
  9.100000000000002E-003    4.214530500866388E-020
  9.200000000000002E-003    4.815391470542202E-020
  9.300000000000001E-003    5.006429618790608E-020
  9.400000000000002E-003    4.694070978081448E-020
  9.500000000000001E-003    3.822656064815773E-020
  9.600000000000001E-003    2.386909167370361E-020
  9.700000000000002E-003    4.410688023162585E-021
  9.800000000000001E-003   -1.896855263517505E-020
  9.900000000000001E-003   -4.446962232167870E-020
  1.000000000000000E-002   -6.976281553412430E-020
  1.010000000000000E-002   -9.214728741602260E-020
  1.020000000000000E-002   -1.087762186345749E-019
  1.030000000000000E-002   -1.169346187061919E-019
  1.040000000000000E-002   -1.143480412310310E-019
  1.050000000000000E-002   -9.949465259407959E-020
  1.060000000000000E-002   -7.188784443631878E-020
  1.070000000000000E-002   -3.229465096116540E-020
  1.080000000000000E-002    1.714335196592727E-020
  1.090000000000000E-002    7.291491505397366E-020
  1.100000000000000E-002    1.302886905762951E-019
  1.110000000000000E-002    1.836149277174429E-019
  1.120000000000000E-002    2.267702142586660E-019
  1.130000000000000E-002    2.537215437726717E-019
  1.140000000000000E-002    2.591679243786176E-019
  1.150000000000000E-002    2.392041785154067E-019
  1.160000000000000E-002    1.919409029848405E-019
  1.170000000000000E-002    1.180084965599351E-019
  1.180000000000000E-002    2.087499220508262E-020
  1.190000000000000E-002   -9.308347627067260E-020
  1.200000000000000E-002   -2.148043865294164E-019
  1.210000000000000E-002   -3.330723375305551E-019
  1.220000000000000E-002   -4.353563330761138E-019
  1.230000000000000E-002   -5.089070957349090E-019
  1.240000000000000E-002   -5.420389436523748E-019
  1.250000000000000E-002   -5.254893955727256E-019
  1.260000000000000E-002   -4.537266232767744E-019
  1.270000000000000E-002   -3.260605345530737E-019
  1.280000000000000E-002   -1.474140659797553E-019
  1.290000000000000E-002    7.137529914225688E-020
  1.300000000000000E-002    3.138225081075675E-019
  1.310000000000000E-002    5.586831628905469E-019
  1.320000000000000E-002    7.814611017218311E-019
  1.330000000000000E-002    9.564647204597142E-019
  1.340000000000000E-002    1.059278961816640E-018
  1.350000000000000E-002    1.069452525547366E-018
  1.360000000000000E-002    9.731538433901362E-019
  1.370000000000000E-002    7.655145371599142E-019
  1.380000000000000E-002    4.523746797972897E-019
  1.390000000000000E-002    5.116463954487957E-020
  1.400000000000000E-002   -4.092863158341690E-019
  1.410000000000000E-002   -8.901452104464913E-019
  1.420000000000000E-002   -1.345195426297713E-018
  1.430000000000000E-002   -1.724578202616934E-018
  1.440000000000000E-002   -1.979422183931148E-018
  1.450000000000000E-002   -2.067004528645740E-018
  1.460000000000000E-002   -1.955978552739071E-018
  1.470000000000000E-002   -1.631139064253503E-018
  1.480000000000000E-002   -1.097166633582568E-018
  1.490000000000000E-002   -3.808246338167875E-019
  1.500000000000000E-002    4.688265353550632E-019
  1.510000000000000E-002    1.382488209859304E-018
  1.520000000000000E-002    2.275051055463169E-018
  1.530000000000000E-002    3.052246773022891E-018
  1.540000000000000E-002    3.619134105581658E-018
  1.550000000000000E-002    3.889794541531801E-018
  1.560000000000000E-002    3.797382038438224E-018
  1.570000000000000E-002    3.303544329459751E-018
  1.580000000000000E-002    2.406151712408354E-018
  1.590000000000000E-002    1.144311161332917E-018
  1.600000000000000E-002   -4.002160355886796E-019
  1.610000000000000E-002   -2.105814067879754E-018
  1.620000000000000E-002   -3.818298595270083E-018
  1.630000000000000E-002   -5.362524701121030E-018
  1.640000000000000E-002   -6.557692422883183E-018
  1.650000000000000E-002   -7.235240817765657E-018
  1.660000000000000E-002   -7.257830030322464E-018
  1.670000000000000E-002   -6.537586130036567E-018
  1.680000000000000E-002   -5.051625555933345E-018
  1.690000000000000E-002   -2.852897542134935E-018
  1.700000000000000E-002   -7.461472659501126E-020
  1.710000000000000E-002    3.073024231541316E-018
  1.720000000000000E-002    6.314483557334126E-018
  1.730000000000000E-002    9.328793284166257E-018
  1.740000000000000E-002    1.177672209840319E-017
  1.750000000000000E-002    1.333335090240891E-017
  1.760000000000000E-002    1.372338787953543E-017
  1.770000000000000E-002    1.275592919982758E-017
  1.780000000000000E-002    1.035499579725282E-017
  1.790000000000000E-002    6.582166407685960E-018
  1.800000000000000E-002    1.647937060589603E-018
  1.810000000000000E-002   -4.090798023584369E-018
  1.820000000000000E-002   -1.014866768747775E-017
  1.830000000000000E-002   -1.594527450787058E-017
  1.840000000000000E-002   -2.085271712289378E-017
  1.850000000000000E-002   -2.425405739537596E-017
  1.860000000000000E-002   -2.560811688881104E-017
  1.870000000000000E-002   -2.451473905634988E-017