 -4.000000000000000E-002    0.000000000000000E+000
 -3.990000000000000E-002    0.000000000000000E+000
 -3.980000000000000E-002    0.000000000000000E+000
 -3.970000000000000E-002    0.000000000000000E+000
 -3.960000000000000E-002    0.000000000000000E+000
 -3.950000000000000E-002    0.000000000000000E+000
 -3.940000000000000E-002    0.000000000000000E+000
 -3.930000000000000E-002    0.000000000000000E+000
 -3.920000000000000E-002    8.131447740856129E-032
 -3.910000000000000E-002    3.450539841103716E-030
 -3.900000000000000E-002    4.845389607172712E-029
 -3.890000000000000E-002    4.049711214065508E-028
 -3.880000000000000E-002    2.435729932751927E-027
 -3.870000000000000E-002    1.155645925101439E-026
 -3.860000000000000E-002    4.559763196963536E-026
 -3.850000000000000E-002    1.546938860752433E-025
 -3.840000000000000E-002    4.613036113190196E-025
 -3.830000000000000E-002    1.226782160266437E-024
 -3.820000000000000E-002    2.934676225738266E-024
 -3.810000000000000E-002    6.333973330342926E-024
 -3.800000000000000E-002    1.228496555090331E-023
 -3.790000000000000E-002    2.106977937293688E-023
 -3.780000000000000E-002    3.055616494329890E-023
 -3.770000000000000E-002    3.225341355158230E-023
 -3.760000000000000E-002    3.958381393971189E-024
 -3.750000000000000E-002   -1.024444107575390E-022
 -3.740000000000000E-002   -3.790860023798050E-022
 -3.730000000000000E-002   -9.857680075531301E-022
 -3.720000000000000E-002   -2.175877056655698E-021
 -3.710000000000000E-002   -4.316117256736168E-021
 -3.700000000000000E-002   -7.884187426428824E-021
 -3.690000000000000E-002   -1.341881305311937E-020
 -3.680000000000000E-002   -2.138611933664250E-020
 -3.670000000000000E-002   -3.191790273487412E-020
 -3.660000000000000E-002   -4.437516302839463E-020
 -3.650000000000000E-002   -5.670103962406693E-020
 -3.640000000000000E-002   -6.455787817486223E-020
 -3.630000000000000E-002   -6.030151468528985E-020
 -3.620000000000000E-002   -3.193667537607860E-020
 -3.610000000000000E-002    3.767861908292035E-020
 -3.600000000000000E-002    1.709621886177019E-019
 -3.590000000000000E-002    3.945022625323563E-019
 -3.580000000000000E-002    7.360212513830664E-019
 -3.570000000000000E-002    1.218675793160958E-018
 -3.560000000000000E-002    1.852054468342547E-018
 -3.550000000000000E-002    2.619542542174699E-018
 -3.540000000000000E-002    3.462304245675123E-018
 -3.530000000000000E-002    4.261008615419675E-018
 -3.520000000000000E-002    4.817612435336531E-018
 -3.510000000000000E-002    4.840882192468034E-018
 -3.500000000000000E-002    3.940802240938339E-018
 -3.490000000000000E-002    1.638251919195383E-018
 -3.480000000000000E-002   -2.603019760227448E-018
 -3.470000000000000E-002   -9.315383938737171E-018
 -3.460000000000000E-002   -1.893224542699868E-017
 -3.450000000000000E-002   -3.165739893504564E-017
 -3.440000000000000E-002   -4.730275858138312E-017
 -3.430000000000000E-002   -6.510585646988550E-017
 -3.420000000000000E-002   -8.354741067053653E-017
 -3.410000000000000E-002   -1.001988275245849E-016
 -3.400000000000000E-002   -1.116380644522184E-016
 -3.390000000000000E-002   -1.134785473357941E-016
 -3.380000000000000E-002   -1.005574815433730E-016
 -3.370000000000000E-002   -6.732402078157661E-017
 -3.360000000000000E-002   -8.453827341105364E-018
 -3.350000000000000E-002    8.030705086082423E-017
 -3.340000000000000E-002    2.011005453932051E-016
 -3.330000000000000E-002    3.527896301702235E-016
 -3.320000000000000E-002    5.297855865318873E-016
 -3.310000000000000E-002    7.210329034305433E-016
 -3.300000000000000E-002    9.093536661085085E-016
 -3.290000000000000E-002    1.071370758451233E-015
 -3.280000000000000E-002    1.178224957155772E-015
 -3.270000000000000E-002    1.197258202098194E-015
 -3.260000000000000E-002    1.094761614071870E-015
 -3.250000000000000E-002    8.397653990638368E-016
 -3.240000000000000E-002    4.086971059944305E-016
 -3.230000000000000E-002   -2.094403485905624E-016
 -3.220000000000000E-002   -1.007897230523989E-015
 -3.210000000000000E-002   -1.957699116969183E-015
 -3.200000000000000E-002   -3.004655459093717E-015
 -3.190000000000000E-002   -4.068677358383468E-015
 -3.180000000000000E-002   -5.046156176757631E-015
 -3.170000000000000E-002   -5.815933582856603E-015
 -3.160000000000000E-002   -6.249070347538786E-015
 -3.150000000000000E-002   -6.222165088508356E-015
 -3.140000000000000E-002   -5.633399595875157E-015
 -3.130000000000000E-002   -4.419928834692874E-015
 -3.120000000000000E-002   -2.574661291510923E-015
 -3.110000000000000E-002   -1.600488930179894E-016
 -3.100000000000000E-002    2.683713321239142E-015
 -3.090000000000000E-002    5.738586595941539E-015
 -3.080000000000000E-002    8.718775481366145E-015
 -3.070000000000000E-002    1.129220541634701E-014
 -3.060000000000000E-002    1.311339459102338E-014
 -3.050000000000000E-002    1.386617727997901E-014
 -3.040000000000000E-002    1.331299263363250E-014
 -3.030000000000000E-002    1.134576082034846E-014
 -3.020000000000000E-002    8.031901036084180E-015
 -3.010000000000000E-002    3.648025398132417E-015
 -3.000000000000000E-002   -1.306322411612587E-015
 -2.990000000000000E-002   -6.121839249896330E-015
 -2.980000000000000E-002   -9.924687154351080E-015
 -2.970000000000000E-002   -1.175589119090573E-014
 -2.960000000000000E-002   -1.068327743654321E-014
 -2.950000000000000E-002   -5.939580549039160E-015
 -2.940000000000000E-002    2.924525600718334E-015
 -2.930000000000000E-002    1.588830821375244E-014
 -2.920000000000000E-002    3.232932319145929E-014
 -2.910000000000000E-002    5.093378981508756E-014
 -2.900000000000000E-002    6.967067775098530E-014
 -2.890000000000000E-002    8.584812991334059E-014
 -2.880000000000000E-002    9.626524726353342E-014
 -2.870000000000000E-002    9.746419605498514E-014
 -2.860000000000000E-002    8.607585752793589E-014
 -2.850000000000000E-002    5.924098197741729E-014
 -2.840000000000000E-002    1.507468524657701E-014
 -2.830000000000000E-002   -4.686847597841494E-014
 -2.820000000000000E-002   -1.251814952924818E-013
 -2.810000000000000E-002   -2.163019010963859E-013
 -2.800000000000000E-002   -3.143750504423756E-013
 -2.790000000000000E-002   -4.113345131398244E-013
 -2.780000000000000E-002   -4.972351519099419E-013
 -2.770000000000000E-002   -5.608545472290929E-013
 -2.760000000000000E-002   -5.905528095246078E-013
 -2.750000000000000E-002   -5.753497175193750E-013
 -2.740000000000000E-002   -5.061490809569055E-013
 -2.730000000000000E-002   -3.770119416627902E-013
 -2.720000000000000E-002   -1.863557738414046E-013
 -2.710000000000000E-002    6.205428170131858E-014
 -2.700000000000000E-002    3.584589607452347E-013
 -2.690000000000000E-002    6.869291369960396E-013
 -2.680000000000000E-002    1.025753882415098E-012
 -2.670000000000000E-002    1.348452528608404E-012
 -2.660000000000000E-002    1.625407062619796E-012
 -2.650000000000000E-002    1.826058969576097E-012
 -2.640000000000000E-002    1.921540262800743E-012
 -2.630000000000000E-002    1.887552473613478E-012
 -2.620000000000000E-002    1.707252927295817E-012
 -2.610000000000000E-002    1.373871579457670E-012
 -2.600000000000000E-002    8.927677786512384E-013
 -2.590000000000000E-002    2.826524363046016E-013
 -2.580000000000000E-002   -4.242607664594406E-013
 -2.570000000000000E-002   -1.183333875258098E-012
 -2.560000000000000E-002   -1.939881750481753E-012
 -2.550000000000000E-002   -2.632793187442229E-012
 -2.540000000000000E-002   -3.199222256833362E-012
 -2.530000000000000E-002   -3.580045309498601E-012
 -2.520000000000000E-002   -3.725666386360409E-012
 -2.510000000000000E-002   -3.601669102329651E-012
 -2.500000000000000E-002   -3.193761085487067E-012
 -2.490000000000000E-002   -2.511453408200017E-012
 -2.480000000000000E-002   -1.589965706949370E-012
 -2.470000000000000E-002   -4.899571359095829E-013
 -2.460000000000000E-002    7.051741417773609E-013
 -2.450000000000000E-002    1.894464041612895E-012
 -2.440000000000000E-002    2.966863039775115E-012
 -2.430000000000000E-002    3.810591765153146E-012
 -2.420000000000000E-002    4.323739582201050E-012
 -2.410000000000000E-002    4.425244948042676E-012
 -2.400000000000000E-002    4.065274613171441E-012
 -2.390000000000000E-002    3.233934840592735E-012
 -2.380000000000000E-002    1.967274573712620E-012
 -2.370000000000000E-002    3.496601962081847E-013
 -2.360000000000000E-002   -1.488173250537549E-012
 -2.350000000000000E-002   -3.375780709145261E-012
 -2.340000000000000E-002   -5.114348494766979E-012
 -2.330000000000000E-002   -6.492283475550455E-012
 -2.320000000000000E-002   -7.304105493846398E-012
 -2.310000000000000E-002   -7.371319190902120E-012
 -2.300000000000000E-002   -6.563533449704605E-012
 -2.290000000000000E-002   -4.817871701102761E-012
 -2.280000000000000E-002   -2.154608201462327E-012
 -2.270000000000000E-002    1.312960971094329E-012
 -2.260000000000000E-002    5.376112325180772E-012
 -2.250000000000000E-002    9.736995486367812E-012
 -2.240000000000000E-002    1.402419264312588E-011
 -2.230000000000000E-002    1.781736491503986E-011
 -2.220000000000000E-002    2.067981972262332E-011
 -2.210000000000000E-002    2.219703801013904E-011
 -2.200000000000000E-002    2.201832575573039E-011
 -2.190000000000000E-002    1.989806838602074E-011
 -2.180000000000000E-002    1.573268727909090E-011
 -2.170000000000000E-002    9.589245557859400E-012
 -2.160000000000000E-002    1.721920441347158E-012
 -2.150000000000000E-002   -7.426772625185661E-012
 -2.140000000000000E-002   -1.724208096014723E-011
 -2.130000000000000E-002   -2.697117008356919E-011
 -2.120000000000000E-002   -3.577440354904719E-011
 -2.110000000000000E-002   -4.279109282270982E-011
 -2.100000000000000E-002   -4.721536097180610E-011
 -2.090000000000000E-002   -4.837618566504624E-011
 -2.080000000000000E-002   -4.581465427643875E-011
 -2.070000000000000E-002   -3.935076813693355E-011
 -2.060000000000000E-002   -2.913221001904887E-011
 -2.050000000000000E-002   -1.565832109381640E-011
 -2.040000000000000E-002    2.259569049852182E-013
 -2.030000000000000E-002    1.736915107057408E-011
 -2.020000000000000E-002    3.438553393449270E-011
 -2.010000000000000E-002    4.975751297108013E-011
 -2.000000000000000E-002    6.196208275943041E-011
 -1.990000000000000E-002    6.961183308902815E-011
 -1.980000000000000E-002    7.159887156067892E-011
 -1.970000000000000E-002    6.722825013834086E-011
 -1.960000000000000E-002    5.632696075517753E-011
 -1.950000000000000E-002    3.931539293846033E-011
 -1.940000000000000E-002    1.723022732133534E-011
 -1.930000000000000E-002   -8.308567359972176E-012
 -1.920000000000000E-002   -3.518985945889384E-011
 -1.910000000000000E-002   -6.095979558075792E-011
 -1.900000000000000E-002   -8.301858606035057E-011
 -1.890000000000000E-002   -9.885187004032850E-011
 -1.880000000000000E-002   -1.062780506224192E-010
 -1.870000000000000E-002   -1.036896717500864E-010
 -1.860000000000000E-002   -9.026494925487857E-011
 -1.850000000000000E-002   -6.612624024152430E-011
 -1.840000000000000E-002   -3.242478968808833E-011
 -1.830000000000000E-002    8.663882929975876E-012
 -1.820000000000000E-002    5.404232570848556E-011
 -1.810000000000000E-002    9.989120761782731E-011
 -1.800000000000000E-002    1.419577473387313E-010
 -1.790000000000000E-002    1.759132234749146E-010
 -1.780000000000000E-002    1.977523332090560E-010
 -1.770000000000000E-002    2.042002242549894E-010
 -1.760000000000000E-002    1.930889970288866E-010
 -1.750000000000000E-002    1.636647803142006E-010
 -1.740000000000000E-002    1.167899879795302E-010
 -1.730000000000000E-002    5.501137339716287E-011
 -1.720000000000000E-002   -1.752463790488882E-011
 -1.710000000000000E-002   -9.531520327914059E-011
 -1.700000000000000E-002   -1.718936116578233E-010
 -1.690000000000000E-002   -2.403474458493418E-010
 -1.680000000000000E-002   -2.939240828070024E-010
 -1.670000000000000E-002   -3.266729502110484E-010
 -1.660000000000000E-002   -3.340673073133914E-010
 -1.650000000000000E-002   -3.135442348156363E-010
 -1.640000000000000E-002   -2.649046930360722E-010
 -1.630000000000000E-002   -1.905237736895709E-010
 -1.620000000000000E-002   -9.533530297597329E-011
 -1.610000000000000E-002    1.342634016038270E-011
 -1.600000000000000E-002    1.267226384178989E-010
 -1.590000000000000E-002    2.344177690123369E-010
 -1.580000000000000E-002    3.261455640734075E-010
 -1.570000000000000E-002    3.922671876888211E-010
 -1.560000000000000E-002    4.248350697219576E-010
 -1.550000000000000E-002    4.184725939462230E-010
 -1.540000000000000E-002    3.710782071331462E-010
 -1.530000000000000E-002    2.842739150357941E-010
 -1.520000000000000E-002    1.635346891162369E-010
 -1.510000000000000E-002    1.796192567973412E-011
 -1.500000000000000E-002   -1.403050963017878E-010
 -1.490000000000000E-002   -2.970113390037977E-010
 -1.480000000000000E-002   -4.369798478320448E-010
 -1.470000000000000E-002   -5.454839979112375E-010
 -1.460000000000000E-002   -6.096807348590136E-010
 -1.450000000000000E-002   -6.199724622583148E-010
 -1.440000000000000E-002   -5.711625388055550E-010
 -1.430000000000000E-002   -4.632777917734685E-010
 -1.420000000000000E-002   -3.019547116834434E-010
 -1.410000000000000E-002   -9.831946723100995E-011
 -1.400000000000000E-002    1.316653816141928E-010
 -1.390000000000000E-002    3.683644100203787E-010
 -1.380000000000000E-002    5.900704574131478E-010
 -1.370000000000000E-002    7.749225613980747E-010
 -1.360000000000000E-002    9.029814353108567E-010
 -1.350000000000000E-002    9.582755829631716E-010
 -1.340000000000000E-002    9.306193944588906E-010
 -1.330000000000000E-002    8.170129459555547E-010
 -1.320000000000000E-002    6.224580850423597E-010
 -1.310000000000000E-002    3.600694514691120E-010
 -1.300000000000000E-002    5.041608700202953E-011
 -1.290000000000000E-002   -2.798993173188887E-010
 -1.280000000000000E-002   -6.003454884930486E-010
 -1.270000000000000E-002   -8.791025197138859E-010
 -1.260000000000000E-002   -1.086024179522148E-009
 -1.250000000000000E-002   -1.195664881194585E-009
 -1.240000000000000E-002   -1.190088177094959E-009
 -1.230000000000000E-002   -1.061174333771060E-009
 -1.220000000000000E-002   -8.121708508887807E-010
 -1.210000000000000E-002   -4.582846184911639E-010
 -1.200000000000000E-002   -2.618932341288109E-011
 -1.190000000000000E-002    4.475839805981001E-010
 -1.180000000000000E-002    9.193027078935691E-010
 -1.170000000000000E-002    1.341560345235554E-009
 -1.160000000000000E-002    1.667409246310179E-009
 -1.150000000000000E-002    1.854754915628686E-009
 -1.140000000000000E-002    1.870623795979762E-009
 -1.130000000000000E-002    1.694902367262161E-009
 -1.120000000000000E-002    1.323168165000234E-009
 -1.110000000000000E-002    7.682962054929801E-010
 -1.100000000000000E-002    6.061929494579734E-011
 -1.090000000000000E-002   -7.534593262515716E-010
 -1.080000000000000E-002   -1.614362913600748E-009
 -1.070000000000000E-002   -2.453565692053933E-009
 -1.060000000000000E-002   -3.198832874623265E-009
 -1.050000000000000E-002   -3.780049457705746E-009
 -1.040000000000000E-002   -4.135135901352569E-009
 -1.030000000000000E-002   -4.215513900494131E-009
 -1.020000000000000E-002   -3.990605009228694E-009
 -1.010000000000000E-002   -3.450908325974212E-009
 -1.000000000000000E-002   -2.609317276312948E-009
 -9.899999999999999E-003   -1.500491259554490E-009
 -9.800000000000000E-003   -1.782693634944000E-010
 -9.699999999999999E-003    1.288692709031032E-009
 -9.599999999999999E-003    2.822705964686155E-009
 -9.500000000000000E-003    4.343742080087013E-009
 -9.399999999999999E-003    5.776411637174917E-009
 -9.299999999999999E-003    7.056550674249610E-009
 -9.200000000000000E-003    8.136744687481928E-009
 -9.099999999999999E-003    8.990195671372392E-009
 -8.999999999999999E-003    9.612469994867258E-009
 -8.900000000000000E-003    1.002086159636733E-008
 -8.799999999999999E-003    1.025133215757373E-008
 -8.699999999999999E-003    1.035322356365013E-008
 -8.600000000000000E-003    1.038218844153538E-008
 -8.499999999999999E-003    1.039198942058407E-008
 -8.399999999999999E-003    1.042596282712745E-008
 -8.300000000000000E-003    1.050904843060594E-008
 -8.199999999999999E-003    1.064127473545851E-008
 -8.100000000000000E-003    1.079352558855207E-008
 -8.000000000000000E-003    1.090622543272529E-008
 -7.899999999999999E-003    1.089138689974443E-008
 -7.800000000000000E-003    1.063812227259335E-008
 -7.699999999999999E-003    1.002145280312464E-008
 -7.599999999999999E-003    8.913911375493321E-009
 -7.499999999999999E-003    7.199159874635086E-009
 -7.399999999999999E-003    4.786613128306681E-009
 -7.299999999999999E-003    1.625913220261462E-009
 -7.199999999999999E-003   -2.279928239799773E-009
 -7.100000000000000E-003   -6.863833379451575E-009
 -6.999999999999999E-003   -1.198739032108358E-008
 -6.899999999999999E-003   -1.743766425492582E-008
 -6.800000000000000E-003   -2.292847117461978E-008
 -6.699999999999999E-003   -2.810606330374495E-008
 -6.599999999999999E-003   -3.255876426787758E-008
 -6.499999999999999E-003   -3.582987112469118E-008
 -6.399999999999999E-003   -3.743253983909032E-008
 -6.299999999999999E-003   -3.686560641118766E-008
 -6.199999999999999E-003   -3.362862625341075E-008
 -6.100000000000000E-003   -2.723498954425858E-008
 -5.999999999999999E-003   -1.722182704942480E-008
 -5.899999999999999E-003   -3.155521355351849E-009
 -5.800000000000000E-003    1.536732319065201E-008
 -5.699999999999999E-003    3.872405508181665E-008
 -5.599999999999999E-003    6.727478462736849E-008
 -5.499999999999999E-003    1.013751532629655E-007
 -5.399999999999999E-003    1.413919341248063E-007
 -5.299999999999999E-003    1.877201447202933E-007
 -5.199999999999999E-003    2.408000250119014E-007
 -5.099999999999999E-003    3.011324096571534E-007
 -4.999999999999999E-003    3.692911767869658E-007
 -4.899999999999999E-003    4.459312169578581E-007
 -4.799999999999999E-003    5.317915568898598E-007
 -4.699999999999999E-003    6.276929622027386E-007
 -4.599999999999999E-003    7.345307502510966E-007
 -4.499999999999999E-003    8.532628230196212E-007
 -4.399999999999999E-003    9.848945698085719E-007
 -4.299999999999999E-003    1.130462202214416E-006
 -4.199999999999999E-003    1.291015498963449E-006
 -4.099999999999999E-003    1.467603003685214E-006
 -3.999999999999999E-003    1.661260058263163E-006
 -3.899999999999999E-003    1.873002244268091E-006
 -3.799999999999999E-003    2.103824447892628E-006
 -3.699999999999999E-003    2.354706946490239E-006
 -3.599999999999999E-003    2.626626864054891E-006
 -3.499999999999999E-003    2.920576897842427E-006
 -3.399999999999999E-003    3.237587679008245E-006
 -3.299999999999999E-003    3.578753501068707E-006
 -3.199999999999999E-003    3.945258629199717E-006
 -3.099999999999999E-003    4.338404215172767E-006
 -2.999999999999999E-003    4.759630292134109E-006
 -2.899999999999999E-003    5.210533259433161E-006
 -2.799999999999999E-003    5.692879092528026E-006
 -2.699999999999999E-003    6.208607310810504E-006
 -2.599999999999999E-003    6.759828949597660E-006
 -2.499999999999999E-003    7.348816867049423E-006
 -2.399999999999999E-003    7.977990880068785E-006
 -2.299999999999999E-003    8.649900783979298E-006
 -2.199999999999999E-003    9.367204635701684E-006
 -2.099999999999999E-003    1.013265046185236E-005
 -1.999999999999999E-003    1.094905839010757E-005
 -1.899999999999999E-003    1.181931042533716E-005
 -1.799999999999999E-003    1.274634568620630E-005
 -1.699999999999999E-003    1.373316540039550E-005
 -1.599999999999999E-003    1.478284565442767E-005
 -1.499999999999999E-003    1.589855881205654E-005
 -1.399999999999999E-003    1.708360272166822E-005
 -1.299999999999999E-003    1.834143803947777E-005
 -1.199999999999999E-003    1.967572167731376E-005
 -1.099999999999999E-003    2.109034787933434E-005
 -9.999999999999989E-004    2.258949213703765E-005
 -8.999999999999990E-004    2.417763616351602E-005
 -7.999999999999990E-004    2.585959937177520E-005
 -6.999999999999989E-004    2.764055522988150E-005
 -5.999999999999990E-004    2.952604119543661E-005
 -4.999999999999989E-004    3.152196363252083E-005
 -3.999999999999989E-004    3.363458674730222E-005
 -2.999999999999989E-004    3.587052138274528E-005
 -1.999999999999989E-004    3.823670743875035E-005
 -9.999999999999892E-005    4.074040371777729E-005
  1.084202172485504E-018    4.338916785708175E-005
  1.000000000000011E-004    4.619084725985381E-005
  2.000000000000011E-004    4.915358987338210E-005
  3.000000000000011E-004    5.228584098212863E-005
  4.000000000000011E-004    5.559637066318970E-005
  5.000000000000011E-004    5.909431155214678E-005
  6.000000000000011E-004    6.278919331766190E-005
  7.000000000000011E-004    6.669100022205977E-005
  8.000000000000011E-004    7.081022542169610E-005
  9.000000000000012E-004    7.515792322868615E-005
  1.000000000000001E-003    7.974577311878556E-005
  1.100000000000001E-003    8.458611958644102E-005
  1.200000000000001E-003    8.969203541820067E-005
  1.300000000000001E-003    9.507733359636157E-005
  1.400000000000001E-003    1.007566007836955E-004
  1.500000000000001E-003    1.067451978117669E-004
  1.600000000000001E-003    1.130592702087808E-004
  1.700000000000001E-003    1.197157326449906E-004
  1.800000000000001E-003    1.267322556521802E-004
  1.900000000000001E-003    1.341272553167730E-004
  2.000000000000001E-003    1.419198850869396E-004
  2.100000000000001E-003    1.501300236967276E-004
  2.200000000000001E-003    1.587783098499897E-004
  2.300000000000001E-003    1.678861592141225E-004
  2.400000000000001E-003    1.774757947828717E-004
  2.500000000000001E-003    1.875702979638123E-004
  2.600000000000001E-003    1.981937203318225E-004
  2.700000000000001E-003    2.093711273955459E-004
  2.800000000000001E-003    2.211287315145385E-004
  2.900000000000001E-003    2.334939620641357E-004
  3.000000000000001E-003    2.464955397103901E-004
  3.100000000000001E-003    2.601636199828724E-004
  3.200000000000001E-003    2.745298282765297E-004
  3.300000000000001E-003    2.896273383165142E-004
  3.400000000000001E-003    3.054909237188017E-004
  3.500000000000001E-003    3.221569476219408E-004
  3.600000000000001E-003    3.396634326240957E-004
  3.700000000000001E-003    3.580500519705995E-004
  3.800000000000001E-003    3.773580646200840E-004
  3.900000000000001E-003    3.976303749288181E-004
  4.000000000000001E-003    4.189114539888953E-004
  4.100000000000001E-003    4.412474331215051E-004
  4.200000000000001E-003    4.646860247222939E-004
  4.300000000000001E-003    4.892765870274306E-004
  4.400000000000001E-003    5.150702110517128E-004
  4.500000000000001E-003    5.421197226744040E-004
  4.600000000000002E-003    5.704798314428112E-004
  4.700000000000001E-003    6.002072184074148E-004
  4.800000000000001E-003    6.313607049219586E-004
  4.900000000000002E-003    6.640013223942154E-004
  5.000000000000001E-003    6.981925272735377E-004
  5.100000000000001E-003    7.340001751611429E-004
  5.200000000000001E-003    7.714929264199481E-004
  5.300000000000002E-003    8.107421496198032E-004
  5.400000000000001E-003    8.518219596970561E-004
  5.500000000000001E-003    8.948094928521517E-004
  5.600000000000002E-003    9.397848758853013E-004
  5.700000000000001E-003    9.868311170847001E-004
  5.800000000000001E-003    1.036034387646855E-003
  5.900000000000002E-003    1.087483928143310E-003
  6.000000000000001E-003    1.141271905216899E-003
  6.100000000000001E-003    1.197493550123276E-003
  6.200000000000002E-003    1.256247247900251E-003
  6.300000000000002E-003    1.317634621086298E-003
  6.400000000000001E-003    1.381760131585884E-003
  6.500000000000001E-003    1.448731779344611E-003
  6.600000000000002E-003    1.518660777746185E-003
  6.700000000000001E-003    1.591661708643353E-003
  6.800000000000001E-003    1.667853008508777E-003
  6.900000000000002E-003    1.747356520166987E-003
  7.000000000000001E-003    1.830297971041414E-003
  7.100000000000001E-003    1.916807224798843E-003
  7.200000000000002E-003    2.007018218222999E-003
  7.300000000000002E-003    2.101069199025360E-003
  7.400000000000001E-003    2.199102712440117E-003
  7.500000000000001E-003    2.301265764073542E-003
  7.600000000000002E-003    2.407709991242816E-003
  7.700000000000001E-003    2.518591532370614E-003
  7.800000000000001E-003    2.634071154018422E-003
  7.900000000000001E-003    2.754314415012093E-003
  8.000000000000002E-003    2.879491133708266E-003
  8.100000000000001E-003    3.009776278219164E-003
  8.200000000000001E-003    3.145349407552031E-003
  8.300000000000002E-003    3.286394581889767E-003
  8.400000000000001E-003    3.433100506021979E-003
  8.500000000000002E-003    3.585661153737874E-003
  8.600000000000002E-003    3.744274872283730E-003
  8.700000000000001E-003    3.909145219842855E-003
  8.800000000000002E-003    4.080480907148596E-003
  8.900000000000002E-003    4.258495586083968E-003
  9.000000000000001E-003    4.443408032482531E-003
  9.100000000000002E-003    4.635442527752153E-003
  9.200000000000002E-003    4.834828778515456E-003
  9.300000000000001E-003    5.041802118591170E-003
  9.400000000000002E-003    5.256603463196089E-003
  9.500000000000001E-003    5.479479027955737E-003
  9.600000000000001E-003    5.710681000422223E-003
  9.700000000000002E-003    5.950467271086676E-003
  9.800000000000001E-003    6.199101391962163E-003
  9.900000000000001E-003    6.456851884469290E-003
  1.000000000000000E-002    6.723993734217734E-003
  1.010000000000000E-002    7.000806611736573E-003
  1.020000000000000E-002    7.287575595768602E-003
  1.030000000000000E-002    7.584591367614007E-003
  1.040000000000000E-002    7.892149283088672E-003
  1.050000000000000E-002    8.210550287493179E-003
  1.060000000000000E-002    8.540099483517742E-003
  1.070000000000000E-002    8.881107979188285E-003
  1.080000000000000E-002    9.233891010903533E-003
  1.090000000000000E-002    9.598769531211708E-003
  1.100000000000000E-002    9.976069141081758E-003
  1.110000000000000E-002    1.036612017098574E-002
  1.120000000000000E-002    1.076925711840980E-002
  1.130000000000000E-002    1.118582033652086E-002
  1.140000000000000E-002    1.161615446697079E-002
  1.150000000000000E-002    1.206060869500838E-002
  1.160000000000000E-002    1.251953726187885E-002
  1.170000000000000E-002    1.299329788828054E-002
  1.180000000000000E-002    1.348225319209432E-002
  1.190000000000000E-002    1.398676996023328E-002
  1.200000000000000E-002    1.450721793005189E-002
  1.210000000000000E-002    1.504397128433004E-002
  1.220000000000000E-002    1.559740522349313E-002
  1.230000000000000E-002    1.616790049237970E-002
  1.240000000000000E-002    1.675583710394604E-002
  1.250000000000000E-002    1.736159961221861E-002
  1.260000000000000E-002    1.798557527048369E-002
  1.270000000000000E-002    1.862814927882330E-002
  1.280000000000000E-002    1.928970908949574E-002
  1.290000000000000E-002    1.997064495510173E-002
  1.300000000000000E-002    2.067134610886882E-002
  1.310000000000000E-002    2.139220213244164E-002
  1.320000000000000E-002    2.213360280389289E-002
  1.330000000000000E-002    2.289593845162735E-002
  1.340000000000000E-002    2.367959686976148E-002
  1.350000000000000E-002    2.448496366403052E-002
  1.360000000000000E-002    2.531242721461750E-002
  1.370000000000000E-002    2.616236783113551E-002
  1.380000000000000E-002    2.703517002990089E-002
  1.390000000000000E-002    2.793120949005524E-002
  1.400000000000000E-002    2.885085983360846E-002
  1.410000000000000E-002    2.979449155122856E-002
  1.420000000000000E-002    3.076247018192298E-002
  1.430000000000000E-002    3.175515541372560E-002
  1.440000000000000E-002    3.277290175284542E-002
  1.450000000000000E-002    3.381605385042544E-002
  1.460000000000000E-002    3.488494918882372E-002
  1.470000000000000E-002    3.597992204686150E-002
  1.480000000000000E-002    3.710129067535889E-002
  1.490000000000000E-002    3.824936807169233E-002
  1.500000000000000E-002    3.942445523173490E-002
  1.510000000000000E-002    4.062684487665338E-002
  1.520000000000000E-002    4.185681512940995E-002
  1.530000000000000E-002    4.311463221377290E-002
  1.540000000000000E-002    4.440055288698740E-002
  1.550000000000000E-002    4.571481688990491E-002
  1.560000000000000E-002    4.705765356470638E-002
  1.570000000000000E-002    4.842926803523882E-002
  1.580000000000000E-002    4.982985565593476E-002
  1.590000000000000E-002    5.125959760304234E-002
  1.600000000000000E-002    5.271864850549608E-002
  1.610000000000000E-002    5.420715244748450E-002
  1.620000000000000E-002    5.572523014224766E-002
  1.630000000000000E-002    5.727298289518739E-002
  1.640000000000000E-002    5.885048816134987E-002
  1.650000000000000E-002    6.045780331940665E-002
  1.660000000000000E-002    6.209496238575461E-002
  1.670000000000000E-002    6.376197151168400E-002
  1.680000000000000E-002    6.545881051265749E-002
  1.690000000000000E-002    6.718543996759842E-002
  1.700000000000000E-002    6.894178224516771E-002
  1.710000000000000E-002    7.072774346480169E-002
  1.720000000000000E-002    7.254318649450539E-002
  1.730000000000000E-002    7.438795741810249E-002
  1.740000000000000E-002    7.626186546395776E-002
  1.750000000000000E-002    7.816467954158020E-002
  1.760000000000000E-002    8.009614668172360E-002
  1.770000000000000E-002    8.205598083707086E-002
  1.780000000000000E-002    8.404384849674451E-002
  1.790000000000000E-002    8.605938944335557E-002
  1.800000000000000E-002    8.810221115242964E-002
  1.810000000000000E-002    9.017187417983942E-002
  1.820000000000000E-002    9.226790236464866E-002
  1.830000000000000E-002    9.438978551464873E-002
  1.840000000000000E-002    9.653696081457573E-002
  1.850000000000000E-002    9.870884340337367E-002
  1.860000000000000E-002    0.100904785247113     
  1.870000000000000E-002    0.103124110986374     