 -4.000000000000000E-002    0.000000000000000E+000
 -3.990000000000000E-002    0.000000000000000E+000
 -3.980000000000000E-002    0.000000000000000E+000
 -3.970000000000000E-002    0.000000000000000E+000
 -3.960000000000000E-002    0.000000000000000E+000
 -3.950000000000000E-002    0.000000000000000E+000
 -3.940000000000000E-002    1.272925765396946E-024
 -3.930000000000000E-002    1.463929579421144E-023
 -3.920000000000000E-002    8.840399005512667E-023
 -3.910000000000000E-002    3.702896473164623E-022
 -3.900000000000000E-002    1.197338224595822E-021
 -3.890000000000000E-002    3.144218495011498E-021
 -3.880000000000000E-002    6.842655189738135E-021
 -3.870000000000000E-002    1.223562407983042E-020
 -3.860000000000000E-002    1.682989843632059E-020
 -3.850000000000000E-002    1.261951005922921E-020
 -3.840000000000000E-002   -1.811385243442763E-020
 -3.830000000000000E-002   -1.067248078875633E-019
 -3.820000000000000E-002   -2.984625340974262E-019
 -3.810000000000000E-002   -6.429834923393493E-019
 -3.800000000000000E-002   -1.166183747602198E-018
 -3.790000000000000E-002   -1.812355722574976E-018
 -3.780000000000000E-002   -2.346192069366459E-018
 -3.770000000000000E-002   -2.209007287700030E-018
 -3.760000000000000E-002   -3.352267258444073E-019
 -3.750000000000000E-002    5.045427268076304E-018
 -3.740000000000000E-002    1.656654648192843E-017
 -3.730000000000000E-002    3.775765251394674E-017
 -3.720000000000000E-002    7.282983933815901E-017
 -3.710000000000000E-002    1.260681885794919E-016
 -3.700000000000000E-002    2.006806766800926E-016
 -3.690000000000000E-002    2.969842583709205E-016
 -3.680000000000000E-002    4.098897000952645E-016
 -3.670000000000000E-002    5.257863703453202E-016
 -3.660000000000000E-002    6.191299070840858E-016
 -3.650000000000000E-002    6.492872051250215E-016
 -3.640000000000000E-002    5.584647513041280E-016
 -3.630000000000000E-002    2.718031467892825E-016
 -3.620000000000000E-002   -2.991231069762226E-016
 -3.610000000000000E-002   -1.248142153553514E-015
 -3.600000000000000E-002   -2.660643423406263E-015
 -3.590000000000000E-002   -4.593562808294349E-015
 -3.580000000000000E-002   -7.049565911734509E-015
 -3.570000000000000E-002   -9.946981758738744E-015
 -3.560000000000000E-002   -1.308847290731381E-014
 -3.550000000000000E-002   -1.613297143622841E-014
 -3.540000000000000E-002   -1.857674670136767E-014
 -3.530000000000000E-002   -1.975055670905652E-014
 -3.520000000000000E-002   -1.884003623987597E-014
 -3.510000000000000E-002   -1.493571107219533E-014
 -3.500000000000000E-002   -7.117052010547398E-015
 -3.490000000000000E-002    5.428507742862738E-015
 -3.480000000000000E-002    2.325540051514889E-014
 -3.470000000000000E-002    4.648809644680047E-014
 -3.460000000000000E-002    7.464356914392943E-014
 -3.450000000000000E-002    1.064697957807435E-013
 -3.440000000000000E-002    1.398269555705961E-013
 -3.430000000000000E-002    1.716401709621191E-013
 -3.420000000000000E-002    1.979520798545159E-013
 -3.410000000000000E-002    2.140981161321806E-013
 -3.400000000000000E-002    2.150184428029963E-013
 -3.390000000000000E-002    1.957056408203691E-013
 -3.380000000000000E-002    1.517711146811959E-013
 -3.370000000000000E-002    8.009170288423895E-014
 -3.360000000000000E-002   -2.051980648014860E-014
 -3.350000000000000E-002   -1.486950221390975E-013
 -3.340000000000000E-002   -3.000267111192180E-013
 -3.330000000000000E-002   -4.668104170847240E-013
 -3.320000000000000E-002   -6.380924362282193E-013
 -3.310000000000000E-002   -8.000861095919642E-013
 -3.300000000000000E-002   -9.369855342176713E-013
 -3.290000000000000E-002   -1.032166220886705E-012
 -3.280000000000000E-002   -1.069710095463396E-012
 -3.270000000000000E-002   -1.036143639079190E-012
 -3.260000000000000E-002   -9.222272091350186E-013
 -3.250000000000000E-002   -7.245986456336948E-013
 -3.240000000000000E-002   -4.470529085789440E-013
 -3.230000000000000E-002   -1.012435304543596E-013
 -3.220000000000000E-002    2.933783480665192E-013
 -3.210000000000000E-002    7.105155034636636E-013
 -3.200000000000000E-002    1.118905982695954E-012
 -3.190000000000000E-002    1.485073437796799E-012
 -3.180000000000000E-002    1.776770840061644E-012
 -3.170000000000000E-002    1.966821012005152E-012
 -3.160000000000000E-002    2.036968974870306E-012
 -3.150000000000000E-002    1.981283957869440E-012
 -3.140000000000000E-002    1.808626728929515E-012
 -3.130000000000000E-002    1.543724870990818E-012
 -3.120000000000000E-002    1.226480453558586E-012
 -3.110000000000000E-002    9.092865634184408E-013
 -3.100000000000000E-002    6.523055963594020E-013
 -3.090000000000000E-002    5.169112168905571E-013
 -3.080000000000000E-002    5.577210590256742E-013
 -3.070000000000000E-002    8.138933848168557E-013
 -3.060000000000000E-002    1.300548348294926E-012
 -3.050000000000000E-002    2.001310214509014E-012
 -3.040000000000000E-002    2.863008087322750E-012
 -3.030000000000000E-002    3.793513342737362E-012
 -3.020000000000000E-002    4.663508569798058E-012
 -3.010000000000000E-002    5.312715327524260E-012
 -3.000000000000000E-002    5.560706577934924E-012
 -2.990000000000000E-002    5.221991495852607E-012
 -2.980000000000000E-002    4.124593463605971E-012
 -2.970000000000000E-002    2.130844346070885E-012
 -2.960000000000000E-002   -8.412680825428264E-013
 -2.950000000000000E-002   -4.798174047692741E-012
 -2.940000000000000E-002   -9.654352050229671E-012
 -2.930000000000000E-002   -1.522162297224353E-011
 -2.920000000000000E-002   -2.120599063031977E-011
 -2.910000000000000E-002   -2.721348272011340E-011
 -2.900000000000000E-002   -3.276587476017760E-011
 -2.890000000000000E-002   -3.732635238999789E-011
 -2.880000000000000E-002   -4.033434480945589E-011
 -2.870000000000000E-002   -4.124787009649416E-011
 -2.860000000000000E-002   -3.959077882164074E-011
 -2.850000000000000E-002   -3.500164948064418E-011
 -2.840000000000000E-002   -2.728038460277728E-011
 -2.830000000000000E-002   -1.642832118219770E-011
 -2.820000000000000E-002   -2.677653604507892E-012
 -2.810000000000000E-002    1.349373502423487E-011
 -2.800000000000000E-002    3.136514125979836E-011
 -2.790000000000000E-002    4.999565456119356E-011
 -2.780000000000000E-002    6.826735244886302E-011
 -2.770000000000000E-002    8.494798699368648E-011
 -2.760000000000000E-002    9.877064136846335E-011
 -2.750000000000000E-002    1.085258747786505E-010
 -2.740000000000000E-002    1.131603494131168E-010
 -2.730000000000000E-002    1.118745702249641E-010
 -2.720000000000000E-002    1.042115217397556E-010
 -2.710000000000000E-002    9.012765935916115E-011
 -2.700000000000000E-002    7.003819756625359E-011
 -2.690000000000000E-002    4.482962407370495E-011
 -2.680000000000000E-002    1.583450652945234E-011
 -2.670000000000000E-002   -1.523378618298141E-011
 -2.660000000000000E-002   -4.638573447374059E-011
 -2.650000000000000E-002   -7.549500522491695E-011
 -2.640000000000000E-002   -1.004646273168132E-010
 -2.630000000000000E-002   -1.194081839460463E-010
 -2.620000000000000E-002   -1.308316692427019E-010
 -2.610000000000000E-002   -1.337994494226025E-010
 -2.600000000000000E-002   -1.280674102143284E-010
 -2.590000000000000E-002   -1.141668435614973E-010
 -2.580000000000000E-002   -9.342544655326038E-011
 -2.570000000000000E-002   -6.791565746170417E-011
 -2.560000000000000E-002   -4.032656684898889E-011
 -2.550000000000000E-002   -1.376192439645548E-011
 -2.540000000000000E-002    8.525335213347894E-012
 -2.530000000000000E-002    2.344446295497732E-011
 -2.520000000000000E-002    2.839988728800127E-011
 -2.510000000000000E-002    2.161613772847515E-011
 -2.500000000000000E-002    2.422207239404103E-012
 -2.490000000000000E-002   -2.853737403906147E-011
 -2.480000000000000E-002   -6.919464602301934E-011
 -2.470000000000000E-002   -1.160768906431496E-010
 -2.460000000000000E-002   -1.644659262515632E-010
 -2.450000000000000E-002   -2.087003373732495E-010
 -2.440000000000000E-002   -2.426088970208173E-010
 -2.430000000000000E-002   -2.600494844733579E-010
 -2.420000000000000E-002   -2.555146536607115E-010
 -2.410000000000000E-002   -2.247532718728908E-010
 -2.400000000000000E-002   -1.653507940747254E-010
 -2.390000000000000E-002   -7.720780427051237E-011
 -2.380000000000000E-002    3.714130712907006E-011
 -2.370000000000000E-002    1.724174881931025E-010
 -2.360000000000000E-002    3.207289195255610E-010
 -2.350000000000000E-002    4.719602090091627E-010
 -2.340000000000000E-002    6.144102505842392E-010
 -2.330000000000000E-002    7.356466786003822E-010
 -2.320000000000000E-002    8.235193175721084E-010
 -2.310000000000000E-002    8.672555621992321E-010
 -2.300000000000000E-002    8.585438323098852E-010
 -2.290000000000000E-002    7.925038984036241E-010
 -2.280000000000000E-002    6.684433470228258E-010
 -2.270000000000000E-002    4.903105972977078E-010
 -2.260000000000000E-002    2.667740310638114E-010
 -2.250000000000000E-002    1.088701740254748E-011
 -2.240000000000000E-002   -2.606681673483911E-010
 -2.230000000000000E-002   -5.287233222914352E-010
 -2.220000000000000E-002   -7.730822540959352E-010
 -2.210000000000000E-002   -9.741861675208212E-010
 -2.200000000000000E-002   -1.114850022933351E-009
 -2.190000000000000E-002   -1.181915749463185E-009
 -2.180000000000000E-002   -1.167663358674254E-009
 -2.170000000000000E-002   -1.070831743779997E-009
 -2.160000000000000E-002   -8.971259003477198E-010
 -2.150000000000000E-002   -6.591248245679809E-010
 -2.140000000000000E-002   -3.755560871578050E-010
 -2.130000000000000E-002   -6.995739908570727E-011
 -2.120000000000000E-002    2.311911862754652E-010
 -2.110000000000000E-002    5.007305156318363E-010
 -2.100000000000000E-002    7.132932405187603E-010
 -2.090000000000000E-002    8.477672741888032E-010
 -2.080000000000000E-002    8.895178560125010E-010
 -2.070000000000000E-002    8.321419641739966E-010
 -2.060000000000000E-002    6.785552027279874E-010
 -2.050000000000000E-002    4.412627359177903E-010
 -2.040000000000000E-002    1.417289534770149E-010
 -2.030000000000000E-002   -1.911550386848128E-010
 -2.020000000000000E-002   -5.234269772940945E-010
 -2.010000000000000E-002   -8.190627548371562E-010
 -2.000000000000000E-002   -1.043399836787757E-009
 -1.990000000000000E-002   -1.166674473396215E-009
 -1.980000000000000E-002   -1.167341375836729E-009
 -1.970000000000000E-002   -1.034839167738340E-009
 -1.960000000000000E-002   -7.714907252701105E-010
 -1.950000000000000E-002   -3.932908452295210E-010
 -1.940000000000000E-002    7.058507305426517E-011
 -1.930000000000000E-002    5.796044037978090E-010
 -1.920000000000000E-002    1.084966029466377E-009
 -1.910000000000000E-002    1.533762096520041E-009
 -1.900000000000000E-002    1.873900929271467E-009
 -1.890000000000000E-002    2.059388278254712E-009
 -1.880000000000000E-002    2.055495533197245E-009
 -1.870000000000000E-002    1.843317800031992E-009
 -1.860000000000000E-002    1.423245072958441E-009
 -1.850000000000000E-002    8.169341035113561E-010
 -1.840000000000000E-002    6.747609449293698E-011
 -1.830000000000000E-002   -7.623979683228624E-010
 -1.820000000000000E-002   -1.594064683817675E-009
 -1.810000000000000E-002   -2.338514169871231E-009
 -1.800000000000000E-002   -2.903248681967834E-009
 -1.790000000000000E-002   -3.200049178741741E-009
 -1.780000000000000E-002   -3.152974780786494E-009
 -1.770000000000000E-002   -2.705889454132074E-009
 -1.760000000000000E-002   -1.828815412254797E-009
 -1.750000000000000E-002   -5.224676418588874E-010
 -1.740000000000000E-002    1.179541634182326E-009
 -1.730000000000000E-002    3.211164306641996E-009
 -1.720000000000000E-002    5.477144201080108E-009
 -1.710000000000000E-002    7.858872922583664E-009
 -1.700000000000000E-002    1.022247751611960E-008
 -1.690000000000000E-002    1.242852224003071E-008
 -1.680000000000000E-002    1.434251789477486E-008
 -1.670000000000000E-002    1.584532804401550E-008
 -1.660000000000000E-002    1.684251672231474E-008
 -1.650000000000000E-002    1.727175183677277E-008
 -1.640000000000000E-002    1.710750894047913E-008
 -1.630000000000000E-002    1.636256791309535E-008
 -1.620000000000000E-002    1.508606568440769E-008
 -1.610000000000000E-002    1.335821196014258E-008
 -1.600000000000000E-002    1.128211116131874E-008
 -1.590000000000000E-002    8.973446544554580E-009
 -1.580000000000000E-002    6.549031843172268E-009
 -1.570000000000000E-002    4.115441939887858E-009
 -1.560000000000000E-002    1.758945976376370E-009
 -1.550000000000000E-002   -4.620234506964179E-010
 -1.540000000000000E-002   -2.520863331065965E-009
 -1.530000000000000E-002   -4.422490846200734E-009
 -1.520000000000000E-002   -6.198377955585899E-009
 -1.510000000000000E-002   -7.896978865789573E-009
 -1.500000000000000E-002   -9.570085539058772E-009
 -1.490000000000000E-002   -1.125597468811715E-008
 -1.480000000000000E-002   -1.296076064550511E-008
 -1.470000000000000E-002   -1.463937777261599E-008
 -1.460000000000000E-002   -1.617785254519729E-008
 -1.450000000000000E-002   -1.737858865159991E-008
 -1.440000000000000E-002   -1.794992440904670E-008
 -1.430000000000000E-002   -1.750116523773240E-008
 -1.420000000000000E-002   -1.554367588800370E-008
 -1.410000000000000E-002   -1.149798142333652E-008
 -1.400000000000000E-002   -4.706698995068092E-009
 -1.390000000000000E-002    5.548119462722644E-009
 -1.380000000000000E-002    2.002428747980903E-008
 -1.370000000000000E-002    3.949774083450823E-008
 -1.360000000000000E-002    6.474126818632744E-008
 -1.350000000000000E-002    9.650601477407441E-008
 -1.340000000000000E-002    1.355075176096264E-007
 -1.330000000000000E-002    1.824176533603724E-007
 -1.320000000000000E-002    2.378631435467678E-007
 -1.310000000000000E-002    3.024315116092630E-007
 -1.300000000000000E-002    3.766835084462474E-007
 -1.290000000000000E-002    4.611712533208893E-007
 -1.280000000000000E-002    5.564608627874070E-007
 -1.270000000000000E-002    6.631566472709696E-007
 -1.260000000000000E-002    7.819257773323837E-007
 -1.250000000000000E-002    9.135209083512006E-007
 -1.240000000000000E-002    1.058797692003781E-006
 -1.230000000000000E-002    1.218727142211169E-006
 -1.220000000000000E-002    1.394400889657404E-006
 -1.210000000000000E-002    1.587028917155479E-006
 -1.200000000000000E-002    1.797929614346830E-006
 -1.190000000000000E-002    2.028515351048607E-006
 -1.180000000000000E-002    2.280271593021345E-006
 -1.170000000000000E-002    2.554734749573958E-006
 -1.160000000000000E-002    2.853469614091005E-006
 -1.150000000000000E-002    3.178049499673666E-006
 -1.140000000000000E-002    3.530040134792409E-006
 -1.130000000000000E-002    3.910990718328932E-006
 -1.120000000000000E-002    4.322433185998230E-006
 -1.110000000000000E-002    4.765887731433810E-006
 -1.100000000000000E-002    5.242879678358868E-006
 -1.090000000000000E-002    5.754959916232220E-006
 -1.080000000000000E-002    6.303735328779184E-006
 -1.070000000000000E-002    6.890899848417195E-006
 -1.060000000000000E-002    7.518268582365902E-006
 -1.050000000000000E-002    8.187809306432948E-006
 -1.040000000000000E-002    8.901672578764072E-006
 -1.030000000000000E-002    9.662216366902422E-006
 -1.020000000000000E-002    1.047202202376353E-005
 -1.010000000000000E-002    1.133390246320891E-005
 -1.000000000000000E-002    1.225090549369080E-005
 -9.899999999999999E-003    1.322630635751424E-005
 -9.800000000000000E-003    1.426359964282467E-005
 -9.699999999999999E-003    1.536647638461535E-005
 -9.599999999999999E-003    1.653881186516764E-005
 -9.500000000000000E-003    1.778464883429210E-005
 -9.399999999999999E-003    1.910818193996938E-005
 -9.299999999999999E-003    2.051374310526381E-005
 -9.200000000000000E-003    2.200580879576992E-005
 -9.099999999999999E-003    2.358899900506607E-005
 -8.999999999999999E-003    2.526809125258684E-005
 -8.900000000000000E-003    2.704804495009362E-005
 -8.799999999999999E-003    2.893402686889940E-005
 -8.699999999999999E-003    3.093144729529232E-005
 -8.600000000000000E-003    3.304599791114590E-005
 -8.499999999999999E-003    3.528368546505106E-005
 -8.399999999999999E-003    3.765087853100790E-005
 -8.300000000000000E-003    4.015433274878142E-005
 -8.199999999999999E-003    4.280122775551859E-005
 -8.100000000000000E-003    4.559918803885348E-005
 -8.000000000000000E-003    4.855629950394293E-005
 -7.899999999999999E-003    5.168112236372193E-005
 -7.800000000000000E-003    5.498269120891652E-005
 -7.699999999999999E-003    5.847052304558896E-005
 -7.599999999999999E-003    6.215460508021350E-005
 -7.499999999999999E-003    6.604540154672311E-005
 -7.399999999999999E-003    7.015386106721398E-005
 -7.299999999999999E-003    7.449139865209348E-005
 -7.199999999999999E-003    7.906993794352799E-005
 -7.100000000000000E-003    8.390189933369174E-005
 -6.999999999999999E-003    8.900026452271391E-005
 -6.899999999999999E-003    9.437859446819762E-005
 -6.800000000000000E-003    1.000510796103138E-004
 -6.699999999999999E-003    1.060325957598985E-004
 -6.599999999999999E-003    1.123387568787872E-004
 -6.499999999999999E-003    1.189859783843468E-004
 -6.399999999999999E-003    1.259915377594841E-004
 -6.299999999999999E-003    1.333736107036218E-004
 -6.199999999999999E-003    1.411513273234605E-004
 -6.100000000000000E-003    1.493448052067193E-004
 -5.999999999999999E-003    1.579751621261320E-004
 -5.899999999999999E-003    1.670645506504413E-004
 -5.800000000000000E-003    1.766361265724802E-004
 -5.699999999999999E-003    1.867141000225583E-004
 -5.599999999999999E-003    1.973236767330558E-004
 -5.499999999999999E-003    2.084910960728912E-004
 -5.399999999999999E-003    2.202436081536430E-004
 -5.299999999999999E-003    2.326094819920987E-004
 -5.199999999999999E-003    2.456180574001517E-004
 -5.099999999999999E-003    2.592997461772080E-004
 -4.999999999999999E-003    2.736861808009293E-004
 -4.899999999999999E-003    2.888101641933257E-004
 -4.799999999999999E-003    3.047058674851584E-004
 -4.699999999999999E-003    3.214089073281316E-004
 -4.599999999999999E-003    3.389564493342187E-004
 -4.499999999999999E-003    3.573873527968543E-004
 -4.399999999999999E-003    3.767422983914343E-004
 -4.299999999999999E-003    3.970638751632672E-004
 -4.199999999999999E-003    4.183966622349466E-004
 -4.099999999999999E-003    4.407873521779389E-004
 -3.999999999999999E-003    4.642847205360632E-004
 -3.899999999999999E-003    4.889397140536164E-004
 -3.799999999999999E-003    5.148054585504887E-004
 -3.699999999999999E-003    5.419372318165030E-004
 -3.599999999999999E-003    5.703924162764473E-004
 -3.499999999999999E-003    6.002304949046035E-004
 -3.399999999999999E-003    6.315130282533863E-004
 -3.299999999999999E-003    6.643035618803461E-004
 -3.199999999999999E-003    6.986677988349081E-004
 -3.099999999999999E-003    7.346733942548891E-004
 -2.999999999999999E-003    7.723901909574241E-004
 -2.899999999999999E-003    8.118903310366263E-004
 -2.799999999999999E-003    8.532481787002599E-004
 -2.699999999999999E-003    8.965407446911373E-004
 -2.599999999999999E-003    9.418476847957704E-004
 -2.499999999999999E-003    9.892515440588388E-004
 -2.399999999999999E-003    1.038837972639633E-003
 -2.299999999999999E-003    1.090695899466632E-003
 -2.199999999999999E-003    1.144917675499863E-003
 -2.099999999999999E-003    1.201599220200695E-003
 -1.999999999999999E-003    1.260840369378115E-003
 -1.899999999999999E-003    1.322744492227633E-003
 -1.799999999999999E-003    1.387419053572336E-003
 -1.699999999999999E-003    1.454975311632393E-003
 -1.599999999999999E-003    1.525528396925136E-003
 -1.499999999999999E-003    1.599197402813985E-003
 -1.399999999999999E-003    1.676105104672239E-003
 -1.299999999999999E-003    1.756378192668185E-003
 -1.199999999999999E-003    1.840147029423973E-003
 -1.099999999999999E-003    1.927545678313772E-003
 -9.999999999999989E-004    2.018712121072542E-003
 -8.999999999999990E-004    2.113788112101102E-003
 -7.999999999999990E-004    2.212919344887208E-003
 -6.999999999999989E-004    2.316255530260445E-003
 -5.999999999999990E-004    2.423950314288683E-003
 -4.999999999999989E-004    2.536162136596283E-003
 -3.999999999999989E-004    2.653053485531305E-003
 -2.999999999999989E-004    2.774791652420443E-003
 -1.999999999999989E-004    2.901549026075434E-003
 -9.999999999999892E-005    3.033502563805719E-003
  1.084202172485504E-018    3.170834737672987E-003
  1.000000000000011E-004    3.313733249206188E-003
  2.000000000000011E-004    3.462390545371333E-003
  3.000000000000011E-004    3.617004960455552E-003
  4.000000000000011E-004    3.777780154384985E-003
  5.000000000000011E-004    3.944924800149257E-003
  6.000000000000011E-004    4.118653192678190E-003
  7.000000000000011E-004    4.299184986452032E-003
  8.000000000000011E-004    4.486744857741709E-003
  9.000000000000012E-004    4.681562870262846E-003
  1.000000000000001E-003    4.883874608176743E-003
  1.100000000000001E-003    5.093920996605669E-003
  1.200000000000001E-003    5.311947976358327E-003
  1.300000000000001E-003    5.538206822100913E-003
  1.400000000000001E-003    5.772954069663465E-003
  1.500000000000001E-003    6.016452430479532E-003
  1.600000000000001E-003    6.268969175913439E-003
  1.700000000000001E-003    6.530777740222747E-003
  1.800000000000001E-003    6.802157846758933E-003
  1.900000000000001E-003    7.083393718906553E-003
  2.000000000000001E-003    7.374775344737676E-003
  2.100000000000001E-003    7.676598875729256E-003
  2.200000000000001E-003    7.989166307198009E-003
  2.300000000000001E-003    8.312784014119036E-003
  2.400000000000001E-003    8.647764818399510E-003
  2.500000000000001E-003    8.994426293217212E-003
  2.600000000000001E-003    9.353090491582151E-003
  2.700000000000001E-003    9.724086949867261E-003
  2.800000000000001E-003    1.010774659354347E-002
  2.900000000000001E-003    1.050440771528267E-002
  3.000000000000001E-003    1.091441072707352E-002
  3.100000000000001E-003    1.133810242794502E-002
  3.200000000000001E-003    1.177583315548587E-002
  3.300000000000001E-003    1.222795732308073E-002
  3.400000000000001E-003    1.269483354711355E-002
  3.500000000000001E-003    1.317682292492411E-002
  3.600000000000001E-003    1.367429218803260E-002
  3.700000000000001E-003    1.418761038970168E-002
  3.800000000000001E-003    1.471715091228427E-002
  3.900000000000001E-003    1.526329009208688E-002
  4.000000000000001E-003    1.582640625277993E-002
  4.100000000000001E-003    1.640688222008631E-002
  4.200000000000001E-003    1.700510180411093E-002
  4.300000000000001E-003    1.762145160431070E-002
  4.400000000000001E-003    1.825631898021530E-002
  4.500000000000001E-003    1.891009567792567E-002
  4.600000000000002E-003    1.958317015489809E-002
  4.700000000000001E-003    2.027593409737673E-002
  4.800000000000001E-003    2.098877898365323E-002
  4.900000000000002E-003    2.172209425016945E-002
  5.000000000000001E-003    2.247627077221618E-002
  5.100000000000001E-003    2.325169628704415E-002
  5.200000000000001E-003    2.404875662074835E-002
  5.300000000000002E-003    2.486783628035669E-002
  5.400000000000001E-003    2.570931635153717E-002
  5.500000000000001E-003    2.657357432826844E-002
  5.600000000000002E-003    2.746098379190375E-002
  5.700000000000001E-003    2.837191361105761E-002
  5.800000000000001E-003    2.930672863626100E-002
  5.900000000000002E-003    3.026578791051517E-002
  6.000000000000001E-003    3.124944535779027E-002
  6.100000000000001E-003    3.225804693861098E-002
  6.200000000000002E-003    3.329193195648419E-002
  6.300000000000002E-003    3.435143227325088E-002
  6.400000000000001E-003    3.543687082904150E-002
  6.500000000000001E-003    3.654856281143293E-002
  6.600000000000002E-003    3.768680839813172E-002
  6.700000000000001E-003    3.885190096727201E-002
  6.800000000000001E-003    4.004412543944059E-002
  6.900000000000002E-003    4.126374584244411E-002
  7.000000000000001E-003    4.251101601213002E-002
  7.100000000000001E-003    4.378617849759547E-002
  7.200000000000002E-003    4.508945400565575E-002
  7.300000000000002E-003    4.642105493628153E-002
  7.400000000000001E-003    4.778117222396110E-002
  7.500000000000001E-003    4.916997441884336E-002
  7.600000000000002E-003    5.058761906695713E-002
  7.700000000000001E-003    5.203424228141289E-002
  7.800000000000001E-003    5.350995730523216E-002
  7.900000000000001E-003    5.501485412571128E-002
  8.000000000000002E-003    5.654900554003289E-002
  8.100000000000001E-003    5.811245944620740E-002
  8.200000000000001E-003    5.970523274666088E-002
  8.300000000000002E-003    6.132732707707750E-002
  8.400000000000001E-003    6.297870867439737E-002
  8.500000000000002E-003    6.465932373147663E-002
  8.600000000000002E-003    6.636908573825948E-002
  8.700000000000001E-003    6.810788111933475E-002
  8.800000000000002E-003    6.987556281955715E-002
  8.900000000000002E-003    7.167195113784859E-002
  9.000000000000001E-003    7.349683379143257E-002
  9.100000000000002E-003    7.534996936128090E-002
  9.200000000000002E-003    7.723107425997662E-002
  9.300000000000001E-003    7.913983354194899E-002
  9.400000000000002E-003    8.107588893026868E-002
  9.500000000000001E-003    8.303885540420031E-002
  9.600000000000001E-003    8.502830095905464E-002
  9.700000000000002E-003    8.704375067405029E-002
  9.800000000000001E-003    8.908469628890914E-002
  9.900000000000001E-003    9.115057717030181E-002
  1.000000000000000E-002    9.324080471174319E-002
  1.010000000000000E-002    9.535472928212183E-002
  1.020000000000000E-002    9.749167028606708E-002
  1.030000000000000E-002    9.965088844591183E-002
  1.040000000000000E-002    0.101831606558295     
  1.050000000000000E-002    0.104033001006508     
  1.060000000000000E-002    0.106254191820377     
  1.070000000000000E-002    0.108494251323262     
  1.080000000000000E-002    0.110752209398600     
  1.090000000000000E-002    0.113027030383404     
  1.100000000000000E-002    0.115317636741901     
  1.110000000000000E-002    0.117622892001148     
  1.120000000000000E-002    0.119941608455973     
  1.130000000000000E-002    0.122272552543297     
  1.140000000000000E-002    0.124614419910275     
  1.150000000000000E-002    0.126965856418452     
  1.160000000000000E-002    0.129325461408619     
  1.170000000000000E-002    0.131691768075152     
  1.180000000000000E-002    0.134063254290265     
  1.190000000000000E-002    0.136438348785846     
  1.200000000000000E-002    0.138815404900462     
  1.210000000000000E-002    0.141192728056361     
  1.220000000000000E-002    0.143568581231015     
  1.230000000000000E-002    0.145941147939522     
  1.240000000000000E-002    0.148308555092714     
  1.250000000000000E-002    0.150668874676946     
  1.260000000000000E-002    0.153020135681865     
  1.270000000000000E-002    0.155360279874187     
  1.280000000000000E-002    0.157687214000859     
  1.290000000000000E-002    0.159998772685179     
  1.300000000000000E-002    0.162292733012084     
  1.310000000000000E-002    0.164566839219858     
  1.320000000000000E-002    0.166818746329702     
  1.330000000000000E-002    0.169046075278973     
  1.340000000000000E-002    0.171246381522897     
  1.350000000000000E-002    0.173417158511385     
  1.360000000000000E-002    0.175555872102829     
  1.370000000000000E-002    0.177659908928183     
  1.380000000000000E-002    0.179726622801570     
  1.390000000000000E-002    0.181753301804488     
  1.400000000000000E-002    0.183737183235934     
  1.410000000000000E-002    0.185675470976766     
  1.420000000000000E-002    0.187565318741928     
  1.430000000000000E-002    0.189403828343734     
  1.440000000000000E-002    0.191188062893577     
  1.450000000000000E-002    0.192915029072624     
  1.460000000000000E-002    0.194581712755956     
  1.470000000000000E-002    0.196185050044592     
  1.480000000000000E-002    0.197721940752986     
  1.490000000000000E-002    0.199189251473536     
  1.500000000000000E-002    0.200583821196832     
  1.510000000000000E-002    0.201902459417283     
  1.520000000000000E-002    0.203141923213274     
  1.530000000000000E-002    0.204298982191966     
  1.540000000000000E-002    0.205370346979942     
  1.550000000000000E-002    0.206352732417894     
  1.560000000000000E-002    0.207242823881168     
  1.570000000000000E-002    0.208037298680618     
  1.580000000000000E-002    0.208732809905898     
  1.590000000000000E-002    0.209326009975008     
  1.600000000000000E-002    0.209813542569101     
  1.610000000000000E-002    0.210192064112408     
  1.620000000000000E-002    0.210458204459657     
  1.630000000000000E-002    0.210608612135419     
  1.640000000000000E-002    0.210639949169124     
  1.650000000000000E-002    0.210548864806600     
  1.660000000000000E-002    0.210332047827884     
  1.670000000000000E-002    0.209986195547604     
  1.680000000000000E-002    0.209508022620206     
  1.690000000000000E-002    0.208894258031057     
  1.700000000000000E-002    0.208141678892330     
  1.710000000000000E-002    0.207247081083810     
  1.720000000000000E-002    0.206207310181028     
  1.730000000000000E-002    0.205019246505972     
  1.740000000000000E-002    0.203679805472830     
  1.750000000000000E-002    0.202185958888398     
  1.760000000000000E-002    0.200534720759555     
  1.770000000000000E-002    0.198723199470221     
  1.780000000000000E-002    0.196748518190703     
  1.790000000000000E-002    0.194607875427139     
  1.800000000000000E-002    0.192298562352391     
  1.810000000000000E-002    0.189817927504507     
  1.820000000000000E-002    0.187163409965986     
  1.830000000000000E-002    0.184332503051308     
  1.840000000000000E-002    0.181322821470293     
  1.850000000000000E-002    0.178132036920104     
  1.860000000000000E-002    0.174757951395382     
  1.870000000000000E-002    0.171198444743847     