 -4.000000000000000E-002    0.000000000000000E+000
 -3.990000000000000E-002    0.000000000000000E+000
 -3.980000000000000E-002    0.000000000000000E+000
 -3.970000000000000E-002    0.000000000000000E+000
 -3.960000000000000E-002    0.000000000000000E+000
 -3.950000000000000E-002    0.000000000000000E+000
 -3.940000000000000E-002    0.000000000000000E+000
 -3.930000000000000E-002    0.000000000000000E+000
 -3.920000000000000E-002    0.000000000000000E+000
 -3.910000000000000E-002    0.000000000000000E+000
 -3.900000000000000E-002    0.000000000000000E+000
 -3.890000000000000E-002    0.000000000000000E+000
 -3.880000000000000E-002    0.000000000000000E+000
 -3.870000000000000E-002    0.000000000000000E+000
 -3.860000000000000E-002    0.000000000000000E+000
 -3.850000000000000E-002    0.000000000000000E+000
 -3.840000000000000E-002    0.000000000000000E+000
 -3.830000000000000E-002    0.000000000000000E+000
 -3.820000000000000E-002    0.000000000000000E+000
 -3.810000000000000E-002    0.000000000000000E+000
 -3.800000000000000E-002    0.000000000000000E+000
 -3.790000000000000E-002    0.000000000000000E+000
 -3.780000000000000E-002    0.000000000000000E+000
 -3.770000000000000E-002    0.000000000000000E+000
 -3.760000000000000E-002    0.000000000000000E+000
 -3.750000000000000E-002    0.000000000000000E+000
 -3.740000000000000E-002    0.000000000000000E+000
 -3.730000000000000E-002    0.000000000000000E+000
 -3.720000000000000E-002    0.000000000000000E+000
 -3.710000000000000E-002    0.000000000000000E+000
 -3.700000000000000E-002    0.000000000000000E+000
 -3.690000000000000E-002    0.000000000000000E+000
 -3.680000000000000E-002    0.000000000000000E+000
 -3.670000000000000E-002    0.000000000000000E+000
 -3.660000000000000E-002    0.000000000000000E+000
 -3.650000000000000E-002    0.000000000000000E+000
 -3.640000000000000E-002    0.000000000000000E+000
 -3.630000000000000E-002    0.000000000000000E+000
 -3.620000000000000E-002    0.000000000000000E+000
 -3.610000000000000E-002    0.000000000000000E+000
 -3.600000000000000E-002    0.000000000000000E+000
 -3.590000000000000E-002    0.000000000000000E+000
 -3.580000000000000E-002    0.000000000000000E+000
 -3.570000000000000E-002    0.000000000000000E+000
 -3.560000000000000E-002    0.000000000000000E+000
 -3.550000000000000E-002    0.000000000000000E+000
 -3.540000000000000E-002    0.000000000000000E+000
 -3.530000000000000E-002    0.000000000000000E+000
 -3.520000000000000E-002    0.000000000000000E+000
 -3.510000000000000E-002    0.000000000000000E+000
 -3.500000000000000E-002    0.000000000000000E+000
 -3.490000000000000E-002    0.000000000000000E+000
 -3.480000000000000E-002    0.000000000000000E+000
 -3.470000000000000E-002    0.000000000000000E+000
 -3.460000000000000E-002    0.000000000000000E+000
 -3.450000000000000E-002    0.000000000000000E+000
 -3.440000000000000E-002    0.000000000000000E+000
 -3.430000000000000E-002    0.000000000000000E+000
 -3.420000000000000E-002    0.000000000000000E+000
 -3.410000000000000E-002    0.000000000000000E+000
 -3.400000000000000E-002    0.000000000000000E+000
 -3.390000000000000E-002    0.000000000000000E+000
 -3.380000000000000E-002    0.000000000000000E+000
 -3.370000000000000E-002    0.000000000000000E+000
 -3.360000000000000E-002    0.000000000000000E+000
 -3.350000000000000E-002    0.000000000000000E+000
 -3.340000000000000E-002    0.000000000000000E+000
 -3.330000000000000E-002    0.000000000000000E+000
 -3.320000000000000E-002    0.000000000000000E+000
 -3.310000000000000E-002    0.000000000000000E+000
 -3.300000000000000E-002    0.000000000000000E+000
 -3.290000000000000E-002    0.000000000000000E+000
 -3.280000000000000E-002    0.000000000000000E+000
 -3.270000000000000E-002    0.000000000000000E+000
 -3.260000000000000E-002    0.000000000000000E+000
 -3.250000000000000E-002    0.000000000000000E+000
 -3.240000000000000E-002    0.000000000000000E+000
 -3.230000000000000E-002    0.000000000000000E+000
 -3.220000000000000E-002    0.000000000000000E+000
 -3.210000000000000E-002    0.000000000000000E+000
 -3.200000000000000E-002    0.000000000000000E+000
 -3.190000000000000E-002    0.000000000000000E+000
 -3.180000000000000E-002    0.000000000000000E+000
 -3.170000000000000E-002    0.000000000000000E+000
 -3.160000000000000E-002    0.000000000000000E+000
 -3.150000000000000E-002    0.000000000000000E+000
 -3.140000000000000E-002    0.000000000000000E+000
 -3.130000000000000E-002    0.000000000000000E+000
 -3.120000000000000E-002    0.000000000000000E+000
 -3.110000000000000E-002    0.000000000000000E+000
 -3.100000000000000E-002    0.000000000000000E+000
 -3.090000000000000E-002    0.000000000000000E+000
 -3.080000000000000E-002    0.000000000000000E+000
 -3.070000000000000E-002    0.000000000000000E+000
 -3.060000000000000E-002    0.000000000000000E+000
 -3.050000000000000E-002    0.000000000000000E+000
 -3.040000000000000E-002    0.000000000000000E+000
 -3.030000000000000E-002    0.000000000000000E+000
 -3.020000000000000E-002    0.000000000000000E+000
 -3.010000000000000E-002    0.000000000000000E+000
 -3.000000000000000E-002    0.000000000000000E+000
 -2.990000000000000E-002    0.000000000000000E+000
 -2.980000000000000E-002    0.000000000000000E+000
 -2.970000000000000E-002    0.000000000000000E+000
 -2.960000000000000E-002    0.000000000000000E+000
 -2.950000000000000E-002    0.000000000000000E+000
 -2.940000000000000E-002    0.000000000000000E+000
 -2.930000000000000E-002    0.000000000000000E+000
 -2.920000000000000E-002    0.000000000000000E+000
 -2.910000000000000E-002    0.000000000000000E+000
 -2.900000000000000E-002    0.000000000000000E+000
 -2.890000000000000E-002    0.000000000000000E+000
 -2.880000000000000E-002    0.000000000000000E+000
 -2.870000000000000E-002    0.000000000000000E+000
 -2.860000000000000E-002    0.000000000000000E+000
 -2.850000000000000E-002    0.000000000000000E+000
 -2.840000000000000E-002    0.000000000000000E+000
 -2.830000000000000E-002    0.000000000000000E+000
 -2.820000000000000E-002    0.000000000000000E+000
 -2.810000000000000E-002    0.000000000000000E+000
 -2.800000000000000E-002    0.000000000000000E+000
 -2.790000000000000E-002    0.000000000000000E+000
 -2.780000000000000E-002    0.000000000000000E+000
 -2.770000000000000E-002    0.000000000000000E+000
 -2.760000000000000E-002    0.000000000000000E+000
 -2.750000000000000E-002    0.000000000000000E+000
 -2.740000000000000E-002    0.000000000000000E+000
 -2.730000000000000E-002    0.000000000000000E+000
 -2.720000000000000E-002    0.000000000000000E+000
 -2.710000000000000E-002    0.000000000000000E+000
 -2.700000000000000E-002    0.000000000000000E+000
 -2.690000000000000E-002    0.000000000000000E+000
 -2.680000000000000E-002    0.000000000000000E+000
 -2.670000000000000E-002    0.000000000000000E+000
 -2.660000000000000E-002    0.000000000000000E+000
 -2.650000000000000E-002    0.000000000000000E+000
 -2.640000000000000E-002    0.000000000000000E+000
 -2.630000000000000E-002    0.000000000000000E+000
 -2.620000000000000E-002    0.000000000000000E+000
 -2.610000000000000E-002    0.000000000000000E+000
 -2.600000000000000E-002    0.000000000000000E+000
 -2.590000000000000E-002    0.000000000000000E+000
 -2.580000000000000E-002    0.000000000000000E+000
 -2.570000000000000E-002    0.000000000000000E+000
 -2.560000000000000E-002    0.000000000000000E+000
 -2.550000000000000E-002    0.000000000000000E+000
 -2.540000000000000E-002    0.000000000000000E+000
 -2.530000000000000E-002    0.000000000000000E+000
 -2.520000000000000E-002    0.000000000000000E+000
 -2.510000000000000E-002    0.000000000000000E+000
 -2.500000000000000E-002    0.000000000000000E+000
 -2.490000000000000E-002    0.000000000000000E+000
 -2.480000000000000E-002    0.000000000000000E+000
 -2.470000000000000E-002    0.000000000000000E+000
 -2.460000000000000E-002    0.000000000000000E+000
 -2.450000000000000E-002    0.000000000000000E+000
 -2.440000000000000E-002    0.000000000000000E+000
 -2.430000000000000E-002    0.000000000000000E+000
 -2.420000000000000E-002    0.000000000000000E+000
 -2.410000000000000E-002    0.000000000000000E+000
 -2.400000000000000E-002    0.000000000000000E+000
 -2.390000000000000E-002    0.000000000000000E+000
 -2.380000000000000E-002    0.000000000000000E+000
 -2.370000000000000E-002    0.000000000000000E+000
 -2.360000000000000E-002    0.000000000000000E+000
 -2.350000000000000E-002    0.000000000000000E+000
 -2.340000000000000E-002    0.000000000000000E+000
 -2.330000000000000E-002    0.000000000000000E+000
 -2.320000000000000E-002    0.000000000000000E+000
 -2.310000000000000E-002    0.000000000000000E+000
 -2.300000000000000E-002    0.000000000000000E+000
 -2.290000000000000E-002    0.000000000000000E+000
 -2.280000000000000E-002    0.000000000000000E+000
 -2.270000000000000E-002    0.000000000000000E+000
 -2.260000000000000E-002    0.000000000000000E+000
 -2.250000000000000E-002    0.000000000000000E+000
 -2.240000000000000E-002    0.000000000000000E+000
 -2.230000000000000E-002    0.000000000000000E+000
 -2.220000000000000E-002    0.000000000000000E+000
 -2.210000000000000E-002    0.000000000000000E+000
 -2.200000000000000E-002    0.000000000000000E+000
 -2.190000000000000E-002    0.000000000000000E+000
 -2.180000000000000E-002    0.000000000000000E+000
 -2.170000000000000E-002    0.000000000000000E+000
 -2.160000000000000E-002    0.000000000000000E+000
 -2.150000000000000E-002    0.000000000000000E+000
 -2.140000000000000E-002    0.000000000000000E+000
 -2.130000000000000E-002    0.000000000000000E+000
 -2.120000000000000E-002    0.000000000000000E+000
 -2.110000000000000E-002    0.000000000000000E+000
 -2.100000000000000E-002    0.000000000000000E+000
 -2.090000000000000E-002    0.000000000000000E+000
 -2.080000000000000E-002    0.000000000000000E+000
 -2.070000000000000E-002    0.000000000000000E+000
 -2.060000000000000E-002    0.000000000000000E+000
 -2.050000000000000E-002    0.000000000000000E+000
 -2.040000000000000E-002    0.000000000000000E+000
 -2.030000000000000E-002    0.000000000000000E+000
 -2.020000000000000E-002    0.000000000000000E+000
 -2.010000000000000E-002    0.000000000000000E+000
 -2.000000000000000E-002    0.000000000000000E+000
 -1.990000000000000E-002    0.000000000000000E+000
 -1.980000000000000E-002    0.000000000000000E+000
 -1.970000000000000E-002    0.000000000000000E+000
 -1.960000000000000E-002    0.000000000000000E+000
 -1.950000000000000E-002    0.000000000000000E+000
 -1.940000000000000E-002    0.000000000000000E+000
 -1.930000000000000E-002    0.000000000000000E+000
 -1.920000000000000E-002    0.000000000000000E+000
 -1.910000000000000E-002    0.000000000000000E+000
 -1.900000000000000E-002    0.000000000000000E+000
 -1.890000000000000E-002    0.000000000000000E+000
 -1.880000000000000E-002    0.000000000000000E+000
 -1.870000000000000E-002    0.000000000000000E+000
 -1.860000000000000E-002    0.000000000000000E+000
 -1.850000000000000E-002    0.000000000000000E+000
 -1.840000000000000E-002    0.000000000000000E+000
 -1.830000000000000E-002    0.000000000000000E+000
 -1.820000000000000E-002    0.000000000000000E+000
 -1.810000000000000E-002    0.000000000000000E+000
 -1.800000000000000E-002    0.000000000000000E+000
 -1.790000000000000E-002    0.000000000000000E+000
 -1.780000000000000E-002    0.000000000000000E+000
 -1.770000000000000E-002    0.000000000000000E+000
 -1.760000000000000E-002    0.000000000000000E+000
 -1.750000000000000E-002    0.000000000000000E+000
 -1.740000000000000E-002    0.000000000000000E+000
 -1.730000000000000E-002    0.000000000000000E+000
 -1.720000000000000E-002    0.000000000000000E+000
 -1.710000000000000E-002    0.000000000000000E+000
 -1.700000000000000E-002    0.000000000000000E+000
 -1.690000000000000E-002    0.000000000000000E+000
 -1.680000000000000E-002    0.000000000000000E+000
 -1.670000000000000E-002    0.000000000000000E+000
 -1.660000000000000E-002    0.000000000000000E+000
 -1.650000000000000E-002    0.000000000000000E+000
 -1.640000000000000E-002    0.000000000000000E+000
 -1.630000000000000E-002    0.000000000000000E+000
 -1.620000000000000E-002    0.000000000000000E+000
 -1.610000000000000E-002    0.000000000000000E+000
 -1.600000000000000E-002    0.000000000000000E+000
 -1.590000000000000E-002   -1.924390591266381E-047
 -1.580000000000000E-002   -1.900734176592889E-046
 -1.570000000000000E-002   -3.801468353185779E-046
 -1.560000000000000E-002   -5.702202529778668E-046
 -1.550000000000000E-002   -7.602936706371558E-046
 -1.540000000000000E-002   -9.311231823837809E-046
 -1.530000000000000E-002   -1.076294152913521E-045
 -1.520000000000000E-002   -1.031591918438311E-045
 -1.510000000000000E-002   -6.259867545571878E-046
 -1.500000000000000E-002    1.084481622087435E-046
 -1.490000000000000E-002    1.242273820205917E-045
 -1.480000000000000E-002    4.013066306683933E-045
 -1.470000000000000E-002    7.144761722567863E-045
 -1.460000000000000E-002    9.226989252702810E-045
 -1.450000000000000E-002    1.110009967192014E-044
 -1.440000000000000E-002    1.253224408700922E-044
 -1.430000000000000E-002    1.184211433981616E-044
 -1.420000000000000E-002    8.724240314757137E-045
 -1.410000000000000E-002    3.769256869197438E-045
 -1.400000000000000E-002   -5.034029410357979E-045
 -1.390000000000000E-002   -1.819103734669709E-044
 -1.380000000000000E-002   -3.404480717877713E-044
 -1.370000000000000E-002   -5.315675166066467E-044
 -1.360000000000000E-002   -7.264542519944820E-044
 -1.350000000000000E-002   -9.039976627844638E-044
 -1.340000000000000E-002   -1.022507526070088E-043
 -1.330000000000000E-002   -1.023509933309305E-043
 -1.320000000000000E-002   -8.494541210067987E-044
 -1.310000000000000E-002   -4.446988848104186E-044
 -1.300000000000000E-002    2.411417255242934E-044
 -1.290000000000000E-002    1.224345541383228E-043
 -1.280000000000000E-002    2.486432661929814E-043
 -1.270000000000000E-002    3.955720503614080E-043
 -1.260000000000000E-002    5.511405945628893E-043
 -1.250000000000000E-002    6.925403593869916E-043
 -1.240000000000000E-002    7.882800680461260E-043
 -1.230000000000000E-002    8.028002540856263E-043
 -1.220000000000000E-002    6.927697559496144E-043
 -1.210000000000000E-002    4.177181808034652E-043
 -1.200000000000000E-002   -5.480724527833351E-044
 -1.190000000000000E-002   -7.423311636640812E-043
 -1.180000000000000E-002   -1.634349442010756E-042
 -1.170000000000000E-002   -2.680176278323541E-042
 -1.160000000000000E-002   -3.782861073458584E-042
 -1.150000000000000E-002   -4.788648259618944E-042
 -1.140000000000000E-002   -5.489328711290311E-042
 -1.130000000000000E-002   -5.630158727026066E-042
 -1.120000000000000E-002   -4.930408368356352E-042
 -1.110000000000000E-002   -3.117068629362833E-042
 -1.100000000000000E-002    2.615681677859466E-044
 -1.090000000000000E-002    4.599780185443003E-042
 -1.080000000000000E-002    1.051680918832638E-041
 -1.070000000000000E-002    1.743288078591305E-041
 -1.060000000000000E-002    2.468677581258521E-041
 -1.050000000000000E-002    3.126625412584030E-041
 -1.040000000000000E-002    3.581362969710854E-041
 -1.030000000000000E-002    3.669112890156682E-041
 -1.020000000000000E-002    3.212293951635342E-041
 -1.010000000000000E-002    2.042076050652038E-041
 -1.000000000000000E-002    2.918964583471358E-043
 -9.899999999999999E-003   -2.877404049134261E-041
 -9.800000000000000E-003   -6.608220152161314E-041
 -9.699999999999999E-003   -1.093165900368034E-040
 -9.599999999999999E-003   -1.542026050233199E-040
 -9.500000000000000E-003   -1.943391189557408E-040
 -9.399999999999999E-003   -2.213026360839678E-040
 -9.299999999999999E-003   -2.251108168647683E-040
 -9.200000000000000E-003   -1.951463780997894E-040
 -9.099999999999999E-003   -1.215689332769068E-040
 -8.999999999999999E-003    2.789906412562841E-042
 -8.900000000000000E-003    1.801477826753397E-040
 -8.799999999999999E-003    4.053155930615875E-040
 -8.699999999999999E-003    6.633743182238329E-040
 -8.600000000000000E-003    9.279080047293024E-040
 -8.499999999999999E-003    1.160319375744195E-039
 -8.399999999999999E-003    1.310760330511755E-039
 -8.300000000000000E-003    1.321239319676556E-039
 -8.199999999999999E-003    1.131287826102146E-039
 -8.100000000000000E-003    6.863693408061925E-040
 -8.000000000000000E-003   -5.115847741401013E-041
 -7.899999999999999E-003   -1.089202937121820E-039
 -7.800000000000000E-003   -2.392447994306729E-039
 -7.699999999999999E-003   -3.870055700672309E-039
 -7.599999999999999E-003   -5.366961096037010E-039
 -7.499999999999999E-003   -6.661565106740671E-039
 -7.399999999999999E-003   -7.472755826444642E-039
 -7.299999999999999E-003   -7.478942934390069E-039
 -7.199999999999999E-003   -6.350974046847070E-039
 -7.100000000000000E-003   -3.799405849615390E-039
 -6.999999999999999E-003    3.653936686259326E-040
 -6.899999999999999E-003    6.164457871420781E-039
 -6.800000000000000E-003    1.337981694053396E-038
 -6.699999999999999E-003    2.149258966070614E-038
 -6.599999999999999E-003    2.964233513440820E-038
 -6.499999999999999E-003    3.662212786176736E-038
 -6.399999999999999E-003    4.092403993378612E-038
 -6.299999999999999E-003    4.084770760463872E-038
 -6.199999999999999E-003    3.467995622047067E-038
 -6.100000000000000E-003    2.094585072778154E-038
 -5.999999999999999E-003   -1.279180941421996E-039
 -5.899999999999999E-003   -3.201956992705068E-038
 -5.800000000000000E-003   -7.005017720320182E-038
 -5.699999999999999E-003   -1.125994668738660E-037
 -5.599999999999999E-003   -1.551694074590337E-037
 -5.499999999999999E-003   -1.915427103006178E-037
 -5.399999999999999E-003   -2.140466609425768E-037
 -5.299999999999999E-003   -2.141302060266363E-037
 -5.199999999999999E-003   -1.832857598187063E-037
 -5.099999999999999E-003   -1.143074583801922E-037
 -4.999999999999999E-003   -2.825229212313204E-039
 -4.899999999999999E-003    1.510091232900964E-037
 -4.799999999999999E-003    3.408748981027106E-037
 -4.699999999999999E-003    5.529293527927394E-037
 -4.599999999999999E-003    7.650523887114831E-037
 -4.499999999999999E-003    9.470151493922534E-037
 -4.399999999999999E-003    1.061880416298183E-036
 -4.299999999999999E-003    1.068874044387100E-036
 -4.199999999999999E-003    9.278374507830388E-037
 -4.099999999999999E-003    6.051806907663193E-037
 -3.999999999999999E-003    8.101072176160633E-038
 -3.899999999999999E-003   -6.431757524910306E-037
 -3.799999999999999E-003   -1.537139997441908E-036
 -3.699999999999999E-003   -2.536061132818992E-036
 -3.599999999999999E-003   -3.537570189516191E-036
 -3.499999999999999E-003   -4.403077498446413E-036
 -3.399999999999999E-003   -4.964686333087381E-036
 -3.299999999999999E-003   -5.038633342611979E-036
 -3.199999999999999E-003   -4.445577864990353E-036
 -3.099999999999999E-003   -3.037206346692428E-036
 -2.999999999999999E-003   -7.275291567423152E-037
 -2.899999999999999E-003    2.473964276621811E-036
 -2.799999999999999E-003    6.431339192480380E-036
 -2.699999999999999E-003    1.085853094441606E-035
 -2.599999999999999E-003    1.530870468058483E-035
 -2.499999999999999E-003    1.918248313473339E-035
 -2.399999999999999E-003    2.176013574178857E-035
 -2.299999999999999E-003    2.226111837566908E-035
 -2.199999999999999E-003    1.993161384286426E-035
 -2.099999999999999E-003    1.415699818121527E-035
 -1.999999999999999E-003    4.591662840974077E-036
 -1.899999999999999E-003   -8.706270668308846E-036
 -1.799999999999999E-003   -2.515250477679426E-035
 -1.699999999999999E-003   -4.354734788172468E-035
 -1.599999999999999E-003   -6.204275904037600E-035
 -1.499999999999999E-003   -7.818812694875356E-035
 -1.399999999999999E-003   -8.907346806961197E-035
 -1.299999999999999E-003   -9.158098757069943E-035
 -1.199999999999999E-003   -8.274433040362642E-035
 -1.099999999999999E-003   -6.019959598428688E-035
 -9.999999999999989E-004   -2.269452484477115E-035
 -8.999999999999990E-004    2.939644148716928E-035
 -7.999999999999990E-004    9.362044998102397E-035
 -6.999999999999989E-004    1.651397685975603E-034
 -5.999999999999990E-004    2.366575935273172E-034
 -4.999999999999989E-004    2.986575053646784E-034
 -3.999999999999989E-004    3.400196431274100E-034
 -2.999999999999989E-004    3.490431026628878E-034
 -1.999999999999989E-004    3.148573562455108E-034
 -9.999999999999892E-005    2.291456785243134E-034
  1.084202172485504E-018    8.803728316282429E-035
  1.000000000000011E-004   -1.060417697433750E-034
  2.000000000000011E-004   -3.428264577899234E-034
  3.000000000000011E-004   -6.032844336926139E-034
  4.000000000000011E-004   -8.596124568271878E-034
  5.000000000000011E-004   -1.076432971393455E-033
  6.000000000000011E-004   -1.213382430691359E-033
  7.000000000000011E-004   -1.229145665235653E-033
  8.000000000000011E-004   -1.086806117543716E-033
  9.000000000000012E-004   -7.601612598793434E-034
  1.000000000000001E-003   -2.404129632469472E-034
  1.100000000000001E-003    4.575811727407236E-034
  1.200000000000001E-003    1.290491119577888E-033
  1.300000000000001E-003    2.184218220628893E-033
  1.400000000000001E-003    3.035175870103235E-033
  1.500000000000001E-003    3.716012656936316E-033
  1.600000000000001E-003    4.086281302478777E-033
  1.700000000000001E-003    4.008010956334010E-033
  1.800000000000001E-003    3.365449610633903E-033
  1.900000000000001E-003    2.087441684491660E-033
  2.000000000000001E-003    1.700964674844556E-034
  2.100000000000001E-003   -2.303325915703662E-033
  2.200000000000001E-003   -5.148886899062113E-033
  2.300000000000001E-003   -8.078536558013791E-033
  2.400000000000001E-003   -1.071018044067222E-032
  2.500000000000001E-003   -1.259376795892562E-032
  2.600000000000001E-003   -1.325441674241832E-032
  2.700000000000001E-003   -1.225149401721486E-032
  2.800000000000001E-003   -9.250061237488628E-033
  2.900000000000001E-003   -4.098287483137624E-033
  3.000000000000001E-003    3.098227967846954E-033
  3.100000000000001E-003    1.191649488360173E-032
  3.200000000000001E-003    2.158306985684386E-032
  3.300000000000001E-003    3.098032732629759E-032
  3.400000000000001E-003    3.870261553888867E-032
  3.500000000000001E-003    4.316898675260651E-032
  3.600000000000001E-003    4.279324105053116E-032
  3.700000000000001E-003    3.620433242899978E-032
  3.800000000000001E-003    2.250108798248258E-032
  3.900000000000001E-003    1.515924763445796E-033
  4.000000000000001E-003   -2.594644347002598E-032
  4.100000000000001E-003   -5.793560766880019E-032
  4.200000000000001E-003   -9.129031739504021E-032
  4.300000000000001E-003   -1.217219730103551E-031
  4.400000000000001E-003   -1.440783768042378E-031
  4.500000000000001E-003   -1.528036184603780E-031
  4.600000000000002E-003   -1.425876724785420E-031
  4.700000000000001E-003   -1.091714809615533E-031
  4.800000000000001E-003   -5.024216198254648E-032
  4.900000000000002E-003    3.367793679782650E-032
  5.000000000000001E-003    1.384713379614220E-031
  5.100000000000001E-003    2.559352648471973E-031
  5.200000000000001E-003    3.737050796967363E-031
  5.300000000000002E-003    4.757201182829896E-031
  5.400000000000001E-003    5.433243204257183E-031
  5.500000000000001E-003    5.570340079599700E-031
  5.600000000000002E-003    4.989250699739921E-031
  5.700000000000001E-003    3.554954095944003E-031
  5.800000000000001E-003    1.207534652749661E-031
  5.900000000000002E-003   -2.008149925794035E-031
  6.000000000000001E-003   -5.918319450899053E-031
  6.100000000000001E-003   -1.020639485952769E-030
  6.200000000000002E-003   -1.441411787472671E-030
  6.300000000000002E-003   -1.796170384317426E-030
  6.400000000000001E-003   -2.018967651144352E-030
  6.500000000000001E-003   -2.042289204672391E-030
  6.600000000000002E-003   -1.805450458973648E-030
  6.700000000000001E-003   -1.264437215142082E-030
  6.800000000000001E-003   -4.023025769489212E-031
  6.900000000000002E-003    7.610810661419689E-031
  7.000000000000001E-003    2.161359383552080E-030
  7.100000000000001E-003    3.685682942780480E-030
  7.200000000000002E-003    5.173852486319367E-030
  7.300000000000002E-003    6.425867027539382E-030
  7.400000000000001E-003    7.216626049636172E-030
  7.500000000000001E-003    7.317812786020858E-030
  7.600000000000002E-003    6.526075785920537E-030
  7.700000000000001E-003    4.695578360454316E-030
  7.800000000000001E-003    1.771921723401711E-030
  7.900000000000001E-003   -2.176511752278933E-030
  8.000000000000002E-003   -6.934452645365423E-030
  8.100000000000001E-003   -1.212782152080525E-029
  8.200000000000001E-003   -1.722867231343756E-029
  8.300000000000002E-003   -2.158075466523133E-029
  8.400000000000001E-003   -2.444780417489479E-029
  8.500000000000002E-003   -2.508433982816829E-029
  8.600000000000002E-003   -2.282585629515093E-029
  8.700000000000001E-003   -1.719207731254341E-029
  8.800000000000002E-003   -7.993681215849529E-030
  8.900000000000002E-003    4.569922985246494E-030
  9.000000000000001E-003    1.983620197371084E-029
  9.100000000000002E-003    3.664358249009704E-029
  9.200000000000002E-003    5.334809790771375E-029
  9.300000000000001E-003    6.790357955855224E-029
  9.400000000000002E-003    7.801126753668720E-029
  9.500000000000001E-003    8.133743590774199E-029
  9.600000000000001E-003    7.578897866277352E-029
  9.700000000000002E-003    5.982718373477928E-029
  9.800000000000001E-003    3.279046541212115E-029
  9.900000000000001E-003   -4.811321308290900E-030
  1.000000000000000E-002   -5.107394489918316E-029
  1.010000000000000E-002   -1.025916190904643E-028
  1.020000000000000E-002   -1.545063796250660E-028
  1.030000000000000E-002   -2.007453188825260E-028
  1.040000000000000E-002   -2.344613752382351E-028
  1.050000000000000E-002   -2.486721149395563E-028
  1.060000000000000E-002   -2.370655352442698E-028
  1.070000000000000E-002   -1.949142520569174E-028
  1.080000000000000E-002   -1.200125405074178E-028
  1.090000000000000E-002   -1.352806513082373E-029
  1.100000000000000E-002    1.193543431829609E-028
  1.110000000000000E-002    2.691226021366758E-028
  1.120000000000000E-002    4.220751001906340E-028
  1.130000000000000E-002    5.609918211623197E-028
  1.140000000000000E-002    6.663795334996310E-028
  1.150000000000000E-002    7.182714161444381E-028
  1.160000000000000E-002    6.984900759005817E-028
  1.170000000000000E-002    5.932060470902042E-028
  1.180000000000000E-002    3.955514458950443E-028
  1.190000000000000E-002    1.079874970947395E-028
  1.200000000000000E-002   -2.559126009494073E-028
  1.210000000000000E-002   -6.706080871967053E-028
  1.220000000000000E-002   -1.098969026464380E-027
  1.230000000000000E-002   -1.494115020463729E-027
  1.240000000000000E-002   -1.802813470375631E-027
  1.250000000000000E-002   -1.970372633913067E-027
  1.260000000000000E-002   -1.946769740070702E-027
  1.270000000000000E-002   -1.693551055142562E-027
  1.280000000000000E-002   -1.190848528412623E-027
  1.290000000000000E-002   -4.437019308707988E-028
  1.300000000000000E-002    5.132134246048841E-028
  1.310000000000000E-002    1.613357185728407E-027
  1.320000000000000E-002    2.759387300734296E-027
  1.330000000000000E-002    3.828087044997417E-027
  1.340000000000000E-002    4.679387128912737E-027
  1.350000000000000E-002    5.169270426272673E-027
  1.360000000000000E-002    5.165843510398249E-027
  1.370000000000000E-002    4.567328359899464E-027
  1.380000000000000E-002    3.320242553852468E-027
  1.390000000000000E-002    1.435649723050211E-027
  1.400000000000000E-002   -9.988423194972516E-028
  1.410000000000000E-002   -3.813633016810490E-027
  1.420000000000000E-002   -6.760220685489018E-027
  1.430000000000000E-002   -9.524218209652555E-027
  1.440000000000000E-002   -1.174877300133396E-026
  1.450000000000000E-002   -1.306774404495154E-026
  1.460000000000000E-002   -1.314668570071429E-026
  1.470000000000000E-002   -1.172837230210130E-026
  1.480000000000000E-002   -8.678401298125464E-027
  1.490000000000000E-002   -4.025494194003835E-027
  1.500000000000000E-002    2.009321779936647E-027
  1.510000000000000E-002    9.000324733136102E-027
  1.520000000000000E-002    1.632630822940999E-026
  1.530000000000000E-002    2.320459487202274E-026
  1.540000000000000E-002    2.875075531313328E-026
  1.550000000000000E-002    3.206205469296963E-026
  1.560000000000000E-002    3.231946110356388E-026
  1.570000000000000E-002    2.889981902999454E-026
  1.580000000000000E-002    2.148695845027290E-026
  1.590000000000000E-002    1.016840960241570E-026
  1.600000000000000E-002   -4.496482646519499E-027
  1.610000000000000E-002   -2.145064334094342E-026
  1.620000000000000E-002   -3.916679144960337E-026
  1.630000000000000E-002   -5.573550439159301E-026
  1.640000000000000E-002   -6.901513398155233E-026
  1.650000000000000E-002   -7.683780453238028E-026
  1.660000000000000E-002   -7.725801333683437E-026
  1.670000000000000E-002   -6.882268069946935E-026
  1.680000000000000E-002   -5.083497063888097E-026
  1.690000000000000E-002   -2.357956054925178E-026
  1.700000000000000E-002    1.152446689433288E-026
  1.710000000000000E-002    5.187491328428978E-026
  1.720000000000000E-002    9.376740510858547E-026
  1.730000000000000E-002    1.326210124717748E-025
  1.740000000000000E-002    1.633492765934273E-025
  1.750000000000000E-002    1.808604298632703E-025
  1.760000000000000E-002    1.806521721622993E-025
  1.770000000000000E-002    1.594488233911279E-025
  1.780000000000000E-002    1.158137567944090E-025
  1.790000000000000E-002    5.066051004483928E-026
  1.800000000000000E-002   -3.241653418737282E-026
  1.810000000000000E-002   -1.270643268410489E-025
  1.820000000000000E-002   -2.244024423529111E-025
  1.830000000000000E-002   -3.135936257752496E-025
  1.840000000000000E-002   -3.827495210941572E-025
  1.850000000000000E-002   -4.201269217657687E-025
  1.860000000000000E-002   -4.155279991059645E-025
  1.870000000000000E-002   -3.617774828691078E-025