# vtk DataFile Version 3.1
material model VTK file
ASCII
DATASET UNSTRUCTURED_GRID
POINTS         2700 float
      0.000000E+00      0.000000E+00      0.000000E+00
      0.400000E+01      0.000000E+00      0.000000E+00
      0.000000E+00      0.000000E+00      0.400000E+01
      0.400000E+01      0.000000E+00      0.400000E+01
      0.400000E+01      0.000000E+00      0.000000E+00
      0.800000E+01      0.000000E+00      0.000000E+00
      0.400000E+01      0.000000E+00      0.400000E+01
      0.800000E+01      0.000000E+00      0.400000E+01
      0.800000E+01      0.000000E+00      0.000000E+00
      0.120000E+02      0.000000E+00      0.000000E+00
      0.800000E+01      0.000000E+00      0.400000E+01
      0.120000E+02      0.000000E+00      0.400000E+01
      0.120000E+02      0.000000E+00      0.000000E+00
      0.160000E+02      0.000000E+00      0.000000E+00
      0.120000E+02      0.000000E+00      0.400000E+01
      0.160000E+02      0.000000E+00      0.400000E+01
      0.160000E+02      0.000000E+00      0.000000E+00
      0.200000E+02      0.000000E+00      0.000000E+00
      0.160000E+02      0.000000E+00      0.400000E+01
      0.200000E+02      0.000000E+00      0.400000E+01
      0.200000E+02      0.000000E+00      0.000000E+00
      0.240000E+02      0.000000E+00      0.000000E+00
      0.200000E+02      0.000000E+00      0.400000E+01
      0.240000E+02      0.000000E+00      0.400000E+01
      0.240000E+02      0.000000E+00      0.000000E+00
      0.280000E+02      0.000000E+00      0.000000E+00
      0.240000E+02      0.000000E+00      0.400000E+01
      0.280000E+02      0.000000E+00      0.400000E+01
      0.280000E+02      0.000000E+00      0.000000E+00
      0.320000E+02      0.000000E+00      0.000000E+00
      0.280000E+02      0.000000E+00      0.400000E+01
      0.320000E+02      0.000000E+00      0.400000E+01
      0.320000E+02      0.000000E+00      0.000000E+00
      0.360000E+02      0.000000E+00      0.000000E+00
      0.320000E+02      0.000000E+00      0.400000E+01
      0.360000E+02      0.000000E+00      0.400000E+01
      0.360000E+02      0.000000E+00      0.000000E+00
      0.400000E+02      0.000000E+00      0.000000E+00
      0.360000E+02      0.000000E+00      0.400000E+01
      0.400000E+02      0.000000E+00      0.400000E+01
      0.400000E+02      0.000000E+00      0.000000E+00
      0.440000E+02      0.000000E+00      0.000000E+00
      0.400000E+02      0.000000E+00      0.400000E+01
      0.440000E+02      0.000000E+00      0.400000E+01
      0.440000E+02      0.000000E+00      0.000000E+00
      0.480000E+02      0.000000E+00      0.000000E+00
      0.440000E+02      0.000000E+00      0.400000E+01
      0.480000E+02      0.000000E+00      0.400000E+01
      0.480000E+02      0.000000E+00      0.000000E+00
      0.520000E+02      0.000000E+00      0.000000E+00
      0.480000E+02      0.000000E+00      0.400000E+01
      0.520000E+02      0.000000E+00      0.400000E+01
      0.520000E+02      0.000000E+00      0.000000E+00
      0.560000E+02      0.000000E+00      0.000000E+00
      0.520000E+02      0.000000E+00      0.400000E+01
      0.560000E+02      0.000000E+00      0.400000E+01
      0.560000E+02      0.000000E+00      0.000000E+00
      0.600000E+02      0.000000E+00      0.000000E+00
      0.560000E+02      0.000000E+00      0.400000E+01
      0.600000E+02      0.000000E+00      0.400000E+01
      0.600000E+02      0.000000E+00      0.000000E+00
      0.640000E+02      0.000000E+00      0.000000E+00
      0.600000E+02      0.000000E+00      0.400000E+01
      0.640000E+02      0.000000E+00      0.400000E+01
      0.640000E+02      0.000000E+00      0.000000E+00
      0.680000E+02      0.000000E+00      0.000000E+00
      0.640000E+02      0.000000E+00      0.400000E+01
      0.680000E+02      0.000000E+00      0.400000E+01
      0.680000E+02      0.000000E+00      0.000000E+00
      0.720000E+02      0.000000E+00      0.000000E+00
      0.680000E+02      0.000000E+00      0.400000E+01
      0.720000E+02      0.000000E+00      0.400000E+01
      0.720000E+02      0.000000E+00      0.000000E+00
      0.760000E+02      0.000000E+00      0.000000E+00
      0.720000E+02      0.000000E+00      0.400000E+01
      0.760000E+02      0.000000E+00      0.400000E+01
      0.760000E+02      0.000000E+00      0.000000E+00
      0.800000E+02      0.000000E+00      0.000000E+00
      0.760000E+02      0.000000E+00      0.400000E+01
      0.800000E+02      0.000000E+00      0.400000E+01
      0.800000E+02      0.000000E+00      0.000000E+00
      0.840000E+02      0.000000E+00      0.000000E+00
      0.800000E+02      0.000000E+00      0.400000E+01
      0.840000E+02      0.000000E+00      0.400000E+01
      0.840000E+02      0.000000E+00      0.000000E+00
      0.880000E+02      0.000000E+00      0.000000E+00
      0.840000E+02      0.000000E+00      0.400000E+01
      0.880000E+02      0.000000E+00      0.400000E+01
      0.880000E+02      0.000000E+00      0.000000E+00
      0.920000E+02      0.000000E+00      0.000000E+00
      0.880000E+02      0.000000E+00      0.400000E+01
      0.920000E+02      0.000000E+00      0.400000E+01
      0.920000E+02      0.000000E+00      0.000000E+00
      0.960000E+02      0.000000E+00      0.000000E+00
      0.920000E+02      0.000000E+00      0.400000E+01
      0.960000E+02      0.000000E+00      0.400000E+01
      0.960000E+02      0.000000E+00      0.000000E+00
      0.100000E+03      0.000000E+00      0.000000E+00
      0.960000E+02      0.000000E+00      0.400000E+01
      0.100000E+03      0.000000E+00      0.400000E+01
      0.100000E+03      0.000000E+00      0.000000E+00
      0.104000E+03      0.000000E+00      0.000000E+00
      0.100000E+03      0.000000E+00      0.400000E+01
      0.104000E+03      0.000000E+00      0.400000E+01
      0.104000E+03      0.000000E+00      0.000000E+00
      0.108000E+03      0.000000E+00      0.000000E+00
      0.104000E+03      0.000000E+00      0.400000E+01
      0.108000E+03      0.000000E+00      0.400000E+01
      0.108000E+03      0.000000E+00      0.000000E+00
      0.112000E+03      0.000000E+00      0.000000E+00
      0.108000E+03      0.000000E+00      0.400000E+01
      0.112000E+03      0.000000E+00      0.400000E+01
      0.112000E+03      0.000000E+00      0.000000E+00
      0.116000E+03      0.000000E+00      0.000000E+00
      0.112000E+03      0.000000E+00      0.400000E+01
      0.116000E+03      0.000000E+00      0.400000E+01
      0.116000E+03      0.000000E+00      0.000000E+00
      0.120000E+03      0.000000E+00      0.000000E+00
      0.116000E+03      0.000000E+00      0.400000E+01
      0.120000E+03      0.000000E+00      0.400000E+01
      0.120000E+03      0.000000E+00      0.000000E+00
      0.124000E+03      0.000000E+00      0.000000E+00
      0.120000E+03      0.000000E+00      0.400000E+01
      0.124000E+03      0.000000E+00      0.400000E+01
      0.124000E+03      0.000000E+00      0.000000E+00
      0.128000E+03      0.000000E+00      0.000000E+00
      0.124000E+03      0.000000E+00      0.400000E+01
      0.128000E+03      0.000000E+00      0.400000E+01
      0.128000E+03      0.000000E+00      0.000000E+00
      0.132000E+03      0.000000E+00      0.000000E+00
      0.128000E+03      0.000000E+00      0.400000E+01
      0.132000E+03      0.000000E+00      0.400000E+01
      0.132000E+03      0.000000E+00      0.000000E+00
      0.136000E+03      0.000000E+00      0.000000E+00
      0.132000E+03      0.000000E+00      0.400000E+01
      0.136000E+03      0.000000E+00      0.400000E+01
      0.136000E+03      0.000000E+00      0.000000E+00
      0.140000E+03      0.000000E+00      0.000000E+00
      0.136000E+03      0.000000E+00      0.400000E+01
      0.140000E+03      0.000000E+00      0.400000E+01
      0.140000E+03      0.000000E+00      0.000000E+00
      0.144000E+03      0.000000E+00      0.000000E+00
      0.140000E+03      0.000000E+00      0.400000E+01
      0.144000E+03      0.000000E+00      0.400000E+01
      0.144000E+03      0.000000E+00      0.000000E+00
      0.148000E+03      0.000000E+00      0.000000E+00
      0.144000E+03      0.000000E+00      0.400000E+01
      0.148000E+03      0.000000E+00      0.400000E+01
      0.148000E+03      0.000000E+00      0.000000E+00
      0.152000E+03      0.000000E+00      0.000000E+00
      0.148000E+03      0.000000E+00      0.400000E+01
      0.152000E+03      0.000000E+00      0.400000E+01
      0.152000E+03      0.000000E+00      0.000000E+00
      0.156000E+03      0.000000E+00      0.000000E+00
      0.152000E+03      0.000000E+00      0.400000E+01
      0.156000E+03      0.000000E+00      0.400000E+01
      0.156000E+03      0.000000E+00      0.000000E+00
      0.160000E+03      0.000000E+00      0.000000E+00
      0.156000E+03      0.000000E+00      0.400000E+01
      0.160000E+03      0.000000E+00      0.400000E+01
      0.160000E+03      0.000000E+00      0.000000E+00
      0.164000E+03      0.000000E+00      0.000000E+00
      0.160000E+03      0.000000E+00      0.400000E+01
      0.164000E+03      0.000000E+00      0.400000E+01
      0.164000E+03      0.000000E+00      0.000000E+00
      0.168000E+03      0.000000E+00      0.000000E+00
      0.164000E+03      0.000000E+00      0.400000E+01
      0.168000E+03      0.000000E+00      0.400000E+01
      0.168000E+03      0.000000E+00      0.000000E+00
      0.172000E+03      0.000000E+00      0.000000E+00
      0.168000E+03      0.000000E+00      0.400000E+01
      0.172000E+03      0.000000E+00      0.400000E+01
      0.172000E+03      0.000000E+00      0.000000E+00
      0.176000E+03      0.000000E+00      0.000000E+00
      0.172000E+03      0.000000E+00      0.400000E+01
      0.176000E+03      0.000000E+00      0.400000E+01
      0.176000E+03      0.000000E+00      0.000000E+00
      0.180000E+03      0.000000E+00      0.000000E+00
      0.176000E+03      0.000000E+00      0.400000E+01
[...]
POINT_DATA             2700
SCALARS gll_data float
LOOKUP_TABLE default
   1885.31849238002     
   1885.31851293011     
   1822.82582365036     
   1822.82582409060     
   1885.31851293011     
   1885.31847144252     
   1822.82582409060     
   1822.82581478642     
   1885.31847144252     
   1885.31846500775     
   1822.82581478642     
   1822.82578012943     
   1885.31846500775     
   1885.31850829640     
   1822.82578012943     
   1822.82579832589     
   1885.31850829640     
   1885.31846399317     
   1822.82579832589     
   1822.82583624436     
   1885.31846399317     
   1885.31848651932     
   1822.82583624436     
   1822.82580709236     
   1885.31848651932     
   1885.31845974455     
   1822.82580709236     
   1822.82581530655     
   1885.31845974455     
   1885.31845041471     
   1822.82581530655     
   1822.82583574211     
   1885.31845041471     
   1885.31850618728     
   1822.82583574211     
   1822.82581919878     
   1885.31850618728     
   1885.31850191788     
   1822.82581919878     
   1822.82582270173     
   1885.31850191788     
   1885.31849026290     
   1822.82582270173     
   1822.82583408538     
   1885.31849026290     
   1885.31850379358     
   1822.82583408538     
   1822.82582879858     
   1885.31850379358     
   1885.31847391632     
   1822.82582879858     
   1822.82577333667     
   1885.31847391632     
   1885.31848564284     
   1822.82577333667     
   1822.82579608200     
   1885.31848564284     
   1885.31847130991     
   1822.82579608200     
   1822.82582013910     
   1885.31847130991     
   1885.31844844798     
   1822.82582013910     
   1822.82581609153     
   1885.31844844798     
   1885.31850681538     
   1822.82581609153     
   1822.82578477053     
   1885.31850681538     
   1885.31850203316     
   1822.82578477053     
   1822.82578536519     
   1885.31850203316     
   1885.31850203316     
   1822.82578536519     
   1822.82581687955     
   1885.31850203316     
   1885.31850203316     
   1822.82581687955     
   1822.82578224385     
   1885.31850203316     
   1885.31850203316     
   1822.82578224385     
   1822.82578224385     
   1885.31850203316     
   1885.31850203316     
   1822.82578224385     
   1822.82578224385     
   1885.31850203316     
   1885.31850203316     
   1822.82578224385     
   1822.82578224385     
   1885.31850203316     
   1885.31850203316     
   1822.82578224385     
   1822.82578224385     
   1885.31850203316     
   1885.31850203316     
   1822.82578224385     
   1822.82578224385     
   1885.31850203316     
   1885.31850203316     
   1822.82578224385     
   1822.82578224385     
   1885.31850203316     
   1885.31850203316     
   1822.82578224385     
   1822.82578224385     
   1885.31850203316     
   1885.31850203316     
   1822.82578224385     
   1822.82578224385     
   1885.31850203316     
   1885.31850203316     
   1822.82578224385     
   1822.82581956698     
   1885.31850203316     
   1885.31850203316     
   1822.82581956698     
   1822.82577999032     
   1885.31850203316     
   1885.31850203316     
   1822.82577999032     
   1822.82577955642     
   1885.31850203316     
   1885.31850203316     
   1822.82577955642     
   1822.82582689453     
   1885.31850203316     
   1885.31850399851     
   1822.82582689453     
   1822.82581364515     
   1885.31850399851     
   1885.31845323016     
   1822.82581364515     
   1822.82581935512     
   1885.31845323016     
   1885.31845323016     
   1822.82581935512     
   1822.82579096387     
   1885.31845323016     
   1885.31845323016     
   1822.82579096387     
   1822.82579096387     
   1885.31845323016     
   1885.31845323016     
   1822.82579096387     
   1822.82579096387     
   1885.31845323016     
   1885.31845323016     
   1822.82579096387     
   1822.82579096387     
   1885.31845323016     
   1885.31845323016     
   1822.82579096387     
   1822.82582828470     
   1885.31845323016     
   1885.31849581018     
   1822.82582828470     
   1822.82580508579     
   1885.31849581018     
   1885.31849495865     
   1822.82580508579     
   1822.82583814344     
   1885.31849495865     
   1885.31846390833     
   1822.82583814344     
   1822.82577613965     
   1885.31846390833     
   1885.31849070100     
   1822.82577613965     
   1822.82578077761     
   1885.31849070100     
   1885.31849070100     
   1822.82578077761     
   1822.82578077761     
   1885.31849070100     
   1885.31849070100     
   1822.82578077761     
   1822.82578077761     
   1822.82582365036     
   1822.82582409060     
   1760.33310710072     
   1760.33312943161     
   1822.82582409060     
   1822.82581478642     
   1760.33312943161     
   1760.33312155604     
   1822.82581478642     
   1822.82578012943     
   1760.33312155604     
   1760.33312730326     
   1822.82578012943     
   1822.82579832589     
   1760.33312730326     
   1760.33312972084     
   1822.82579832589     
   1822.82583624436     
   1760.33312972084     
   1760.33311393550     
   1822.82583624436     
   1822.82580709236     
   1760.33311393550     
   1760.33310345671     
   1822.82580709236     
   1822.82581530655     
   1760.33310345671     
   1760.33315271388     
   1822.82581530655     
   1822.82583574211     
   1760.33315271388     
   1760.33310647567     
   1822.82583574211     
   1822.82581919878     
   1760.33310647567     
   1760.33311590429     
   1822.82581919878     
   1822.82582270173     
   1760.33311590429     
   1760.33317125305     
   1822.82582270173     
   1822.82583408538     
   1760.33317125305     
   1760.33315901782     
   1822.82583408538     
   1822.82582879858     
   1760.33315901782     
   1760.33313209005     
   1822.82582879858     
   1822.82577333667     
   1760.33313209005     
   1760.33310704249     
   1822.82577333667     
   1822.82579608200     
   1760.33310704249     
   1760.33310788250     
   1822.82579608200     
   1822.82582013910     
   1760.33310788250     
   1760.33314498274     
   1822.82582013910     
   1822.82581609153     
   1760.33314498274     
   1760.33313211441     
   1822.82581609153     
   1822.82578477053     
   1760.33313211441     
   1760.33311040026     
   1822.82578477053     
   1822.82578536519     
   1760.33311040026     
   1760.33310021239     
   1822.82578536519     
   1822.82581687955     
   1760.33310021239     
   1760.33315162888     
   1822.82581687955     
   1822.82578224385     
   1760.33315162888     
   1760.33313695922     
   1822.82578224385     
   1822.82578224385     
   1760.33313695922     
   1760.33314972712     
   1822.82578224385     
   1822.82578224385     
   1760.33314972712     
   1760.33314972712     
   1822.82578224385     
   1822.82578224385     
   1760.33314972712     
   1760.33314972712     
   1822.82578224385     
   1822.82578224385     
   1760.33314972712     
   1760.33314972712     
   1822.82578224385     
   1822.82578224385     
   1760.33314972712     
   1760.33314972712     
   1822.82578224385     
   1822.82578224385     
   1760.33314972712     
   1760.33314972712     
   1822.82578224385     
   1822.82578224385     
   1760.33314972712     
   1760.33312951283     
   1822.82578224385     
   1822.82578224385     
   1760.33312951283     
   1760.33312233088     
   1822.82578224385     
   1822.82581956698     
   1760.33312233088     
   1760.33309679979     
   1822.82581956698     
   1822.82577999032     
   1760.33309679979     
   1760.33313785012     
   1822.82577999032     
   1822.82577955642     
   1760.33313785012     
   1760.33314630135     
   1822.82577955642     
   1822.82582689453     
   1760.33314630135     
   1760.33314022957     
   1822.82582689453     
   1822.82581364515     
   1760.33314022957     
   1760.33308920199     
   1822.82581364515     
   1822.82581935512     
   1760.33308920199     
   1760.33314888843     
   1822.82581935512     
   1822.82579096387     
   1760.33314888843     
   1760.33313260405     
   1822.82579096387     
   1822.82579096387     
   1760.33313260405     
   1760.33311791740     
   1822.82579096387     
   1822.82579096387     
   1760.33311791740     
   1760.33311791740     
   1822.82579096387     
   1822.82579096387     
   1760.33311791740     
   1760.33315289892     
   1822.82579096387     
   1822.82582828470     
   1760.33315289892     
   1760.33312138758     
   1822.82582828470     
   1822.82580508579     
   1760.33312138758     
   1760.33315404261     
   1822.82580508579     
   1822.82583814344     
   1760.33315404261     
   1760.33312159927     
   1822.82583814344     
   1822.82577613965     
   1760.33312159927     
   1760.33314441645     
   1822.82577613965     
   1822.82578077761     
   1760.33314441645     
   1760.33310176203     
   1822.82578077761     
   1822.82578077761     
   1760.33310176203     
   1760.33310176203     
   1822.82578077761     
   1822.82578077761     
   1760.33310176203     
   1760.33310176203     
   1760.33310710072     
   1760.33312943161     
   1697.84056031486     
   1697.84057203920     
   1760.33312943161     
   1760.33312155604     
   1697.84057203920     
   1697.84056934013     
   1760.33312155604     
   1760.33312730326     
   1697.84056934013     
   1697.84057128813     
   1760.33312730326     
   1760.33312972084     
   1697.84057128813     
   1697.84056573789     
   1760.33312972084     
   1760.33311393550     
   1697.84056573789     
   1697.84057750797     
   1760.33311393550     
   1760.33310345671     
   1697.84057750797     
   1697.84059228827     
   1760.33310345671     
   1760.33315271388     
   1697.84059228827     
   1697.84058787859     
   1760.33315271388     
   1760.33310647567     
   1697.84058787859     
   1697.84057215402     
   1760.33310647567     
   1760.33311590429     
   1697.84057215402     
   1697.84057711242     
   1760.33311590429     
   1760.33317125305     
   1697.84057711242     
   1697.84055813030     
   1760.33317125305     
   1760.33315901782     
   1697.84055813030     
   1697.84057967305     
   1760.33315901782     
   1760.33313209005     
   1697.84057967305     
   1697.84056910585     
   1760.33313209005     
   1760.33310704249     
   1697.84056910585     
   1697.84055799860     
   1760.33310704249     
   1760.33310788250     
   1697.84055799860     
   1697.84058751475     
   1760.33310788250     
   1760.33314498274     
   1697.84058751475     
   1697.84056415071     
   1760.33314498274     
   1760.33313211441     
   1697.84056415071     
   1697.84058471498     
   1760.33313211441     
   1760.33311040026     
   1697.84058471498     
   1697.84057231388     
   1760.33311040026     
   1760.33310021239     
   1697.84057231388     
   1697.84056581483     
   1760.33310021239     
   1760.33315162888     
   1697.84056581483     
   1697.84060527030     
   1760.33315162888     
   1760.33313695922     
   1697.84060527030     
   1697.84058270250     
   1760.33313695922     
   1760.33314972712     
   1697.84058270250     
   1697.84058471557     
   1760.33314972712     
   1760.33314972712     
   1697.84058471557     
   1697.84056718233     
   1760.33314972712     
   1760.33314972712     
   1697.84056718233     
   1697.84059969437     
   1760.33314972712     
   1760.33314972712     
   1697.84059969437     
   1697.84054890089     
   1760.33314972712     
   1760.33314972712     
   1697.84054890089     
   1697.84056815646     
   1760.33314972712     
   1760.33314972712     
   1697.84056815646     
   1697.84061625162     
   1760.33314972712     
   1760.33312951283     
   1697.84061625162     
   1697.84060509864     
   1760.33312951283     
   1760.33312233088     
   1697.84060509864     
   1697.84061221675     
   1760.33312233088     
   1760.33309679979     
   1697.84061221675     
   1697.84056663594     
   1760.33309679979     
   1760.33313785012     
   1697.84056663594     
   1697.84059097871     
   1760.33313785012     
   1760.33314630135     
   1697.84059097871     
   1697.84059363744     
   1760.33314630135     
   1760.33314022957     
   1697.84059363744     
   1697.84056401299     
   1760.33314022957     
   1760.33308920199     
   1697.84056401299     
   1697.84056113340     
   1760.33308920199     
   1760.33314888843     
   1697.84056113340     
   1697.84061175642     
   1760.33314888843     
   1760.33313260405     
   1697.84061175642     
   1697.84060642099     
   1760.33313260405     
   1760.33311791740     
   1697.84060642099     
   1697.84054217529     
   1760.33311791740     
   1760.33311791740     
   1697.84054217529     
   1697.84057525037     
   1760.33311791740     
   1760.33315289892     
   1697.84057525037     
   1697.84058050494     
   1760.33315289892     
   1760.33312138758     
   1697.84058050494     
   1697.84060112588     
   1760.33312138758     
   1760.33315404261     
   1697.84060112588     
   1697.84059918092     
   1760.33315404261     
   1760.33312159927     
   1697.84059918092     
   1697.84054561058     
   1760.33312159927     
   1760.33314441645     
   1697.84054561058     
   1697.84057042560     
   1760.33314441645     
   1760.33310176203     
   1697.84057042560     
   1697.84054686838     
   1760.33310176203     
   1760.33310176203     
   1697.84054686838     
   1697.84054686838     
   1760.33310176203     
   1760.33310176203     
   1697.84054686838     
   1697.84054686838     
   1697.84056031486     
   1697.84057203920     
   1635.34789826007     
   1635.34788966039     
   1697.84057203920     
   1697.84056934013     
   1635.34788966039     
   1635.34788843713     
   1697.84056934013     
   1697.84057128813     
   1635.34788843713     
   1635.34788649544     
   1697.84057128813     
   1697.84056573789     
   1635.34788649544     
   1635.34789852011     
   1697.84056573789     
   1697.84057750797     
   1635.34789852011     
   1635.34790419569     
   1697.84057750797     
   1697.84059228827     
   1635.34790419569     
   1635.34790041585     
   1697.84059228827     
   1697.84058787859     
   1635.34790041585     
   1635.34789805942     
   1697.84058787859     
   1697.84057215402     
   1635.34789805942     
   1635.34791175637     
   1697.84057215402     
   1697.84057711242     
   1635.34791175637     
   1635.34788621622     
   1697.84057711242     
   1697.84055813030     
   1635.34788621622     
   1635.34788191301     
   1697.84055813030     
   1697.84057967305     
   1635.34788191301     
   1635.34789609066     
   1697.84057967305     
   1697.84056910585     
   1635.34789609066     
   1635.34789308719     
   1697.84056910585     
   1697.84055799860     
   1635.34789308719     
   1635.34792164281     
   1697.84055799860     
   1697.84058751475     
   1635.34792164281     
   1635.34789091198     
   1697.84058751475     
   1697.84056415071     
   1635.34789091198     
   1635.34789423683     
   1697.84056415071     
   1697.84058471498     
   1635.34789423683     
   1635.34790655430     
   1697.84058471498     
   1697.84057231388     
   1635.34790655430     
   1635.34790571223     
   1697.84057231388     
   1697.84056581483     
   1635.34790571223     
   1635.34790343613     
   1697.84056581483     
   1697.84060527030     
   1635.34790343613     
   1635.34788253431     
   1697.84060527030     
   1697.84058270250     
   1635.34788253431     
   1635.34791835063     
   1697.84058270250     
   1697.84058471557     
   1635.34791835063     
   1635.34788905631     
   1697.84058471557     
   1697.84056718233     
   1635.34788905631     
   1635.34790377660     
   1697.84056718233     
   1697.84059969437     
   1635.34790377660     
   1635.34790904187     
   1697.84059969437     
   1697.84054890089     
   1635.34790904187     
   1635.34788829373     
   1697.84054890089     
   1697.84056815646     
   1635.34788829373     
   1635.34787956933     
   1697.84056815646     
   1697.84061625162     
   1635.34787956933     
   1635.34788231602     
   1697.84061625162     
   1697.84060509864     
   1635.34788231602     
   1635.34791781853     
   1697.84060509864     
   1697.84061221675     
   1635.34791781853     
   1635.34789630143     
   1697.84061221675     
   1697.84056663594     
   1635.34789630143     
   1635.34790679982     
   1697.84056663594     
   1697.84059097871     
   1635.34790679982     
   1635.34790692873     
   1697.84059097871     
   1697.84059363744     
   1635.34790692873     
   1635.34791481606     
   1697.84059363744     
   1697.84056401299     
   1635.34791481606     
   1635.34790294131     
   1697.84056401299     
   1697.84056113340     
   1635.34790294131     
   1635.34789579145     
   1697.84056113340     
   1697.84061175642     
   1635.34789579145     
   1635.34791018995     
   1697.84061175642     
   1697.84060642099     
   1635.34791018995     
   1635.34789241725     
   1697.84060642099     
   1697.84054217529     
   1635.34789241725     
   1635.34790981781     
   1697.84054217529     
   1697.84057525037     
   1635.34790981781     
   1635.34791026525     
   1697.84057525037     
   1697.84058050494     
   1635.34791026525     
   1635.34790455840     
   1697.84058050494     
   1697.84060112588     
   1635.34790455840     
   1635.34790035076     
   1697.84060112588     
   1697.84059918092     
   1635.34790035076     
   1635.34788568871     
   1697.84059918092     
   1697.84054561058     
   1635.34788568871     
   1635.34788840737     
   1697.84054561058     
   1697.84057042560     
   1635.34788840737     
   1635.34789290487     
   1697.84057042560     
   1697.84054686838     
   1635.34789290487     
   1635.34791799862     
   1697.84054686838     
   1697.84054686838     
   1635.34791799862     
   1635.34790724040     
   1697.84054686838     
   1697.84054686838     
   1635.34790724040     
   1635.34790724040     
   1635.34789826007     
   1635.34788966039     
   1572.85523046362     
   1572.85521645007     
   1635.34788966039     
   1635.34788843713     
   1572.85521645007     
   1572.85521965732     
   1635.34788843713     
   1635.34788649544     
   1572.85521965732     
   1572.85521236444     
   1635.34788649544     
   1635.34789852011     
   1572.85521236444     
   1572.85522349261     
   1635.34789852011     
   1635.34790419569     
   1572.85522349261     
   1572.85521017392     
   1635.34790419569     
   1635.34790041585     
   1572.85521017392     
   1572.85524345712     
   1635.34790041585     
   1635.34789805942     
   1572.85524345712     
   1572.85521766684     
   1635.34789805942     
   1635.34791175637     
   1572.85521766684     
   1572.85523383502     
   1635.34791175637     
   1635.34788621622     
   1572.85523383502     
   1572.85524064827     
   1635.34788621622     
   1635.34788191301     
   1572.85524064827     
   1572.85523539875     
   1635.34788191301     
   1635.34789609066     
   1572.85523539875     
   1572.85522373040     
   1635.34789609066     
   1635.34789308719     
   1572.85522373040     
   1572.85521539535     
   1635.34789308719     
   1635.34792164281     
   1572.85521539535     
   1572.85522458207     
   1635.34792164281     
   1635.34789091198     
   1572.85522458207     
   1572.85523598721     
   1635.34789091198     
   1635.34789423683     
   1572.85523598721     
   1572.85523314956     
   1635.34789423683     
   1635.34790655430     
   1572.85523314956     
   1572.85520144570     
   1635.34790655430     
   1635.34790571223     
   1572.85520144570     
   1572.85522778176     
   1635.34790571223     
   1635.34790343613     
   1572.85522778176     
   1572.85523974559     
   1635.34790343613     
   1635.34788253431     
   1572.85523974559     
   1572.85523293985     
   1635.34788253431     