# vtk DataFile Version 3.1
material model VTK file
ASCII
DATASET UNSTRUCTURED_GRID
POINTS         2700 float
      0.000000E+00      0.000000E+00      0.000000E+00
      0.400000E+01      0.000000E+00      0.000000E+00
      0.000000E+00      0.000000E+00      0.400000E+01
      0.400000E+01      0.000000E+00      0.400000E+01
      0.400000E+01      0.000000E+00      0.000000E+00
      0.800000E+01      0.000000E+00      0.000000E+00
      0.400000E+01      0.000000E+00      0.400000E+01
      0.800000E+01      0.000000E+00      0.400000E+01
      0.800000E+01      0.000000E+00      0.000000E+00
      0.120000E+02      0.000000E+00      0.000000E+00
      0.800000E+01      0.000000E+00      0.400000E+01
      0.120000E+02      0.000000E+00      0.400000E+01
      0.120000E+02      0.000000E+00      0.000000E+00
      0.160000E+02      0.000000E+00      0.000000E+00
      0.120000E+02      0.000000E+00      0.400000E+01
      0.160000E+02      0.000000E+00      0.400000E+01
      0.160000E+02      0.000000E+00      0.000000E+00
      0.200000E+02      0.000000E+00      0.000000E+00
      0.160000E+02      0.000000E+00      0.400000E+01
      0.200000E+02      0.000000E+00      0.400000E+01
      0.200000E+02      0.000000E+00      0.000000E+00
      0.240000E+02      0.000000E+00      0.000000E+00
      0.200000E+02      0.000000E+00      0.400000E+01
      0.240000E+02      0.000000E+00      0.400000E+01
      0.240000E+02      0.000000E+00      0.000000E+00
      0.280000E+02      0.000000E+00      0.000000E+00
      0.240000E+02      0.000000E+00      0.400000E+01
      0.280000E+02      0.000000E+00      0.400000E+01
      0.280000E+02      0.000000E+00      0.000000E+00
      0.320000E+02      0.000000E+00      0.000000E+00
      0.280000E+02      0.000000E+00      0.400000E+01
      0.320000E+02      0.000000E+00      0.400000E+01
      0.320000E+02      0.000000E+00      0.000000E+00
      0.360000E+02      0.000000E+00      0.000000E+00
      0.320000E+02      0.000000E+00      0.400000E+01
      0.360000E+02      0.000000E+00      0.400000E+01
      0.360000E+02      0.000000E+00      0.000000E+00
      0.400000E+02      0.000000E+00      0.000000E+00
      0.360000E+02      0.000000E+00      0.400000E+01
      0.400000E+02      0.000000E+00      0.400000E+01
      0.400000E+02      0.000000E+00      0.000000E+00
      0.440000E+02      0.000000E+00      0.000000E+00
      0.400000E+02      0.000000E+00      0.400000E+01
      0.440000E+02      0.000000E+00      0.400000E+01
      0.440000E+02      0.000000E+00      0.000000E+00
      0.480000E+02      0.000000E+00      0.000000E+00
      0.440000E+02      0.000000E+00      0.400000E+01
      0.480000E+02      0.000000E+00      0.400000E+01
      0.480000E+02      0.000000E+00      0.000000E+00
      0.520000E+02      0.000000E+00      0.000000E+00
      0.480000E+02      0.000000E+00      0.400000E+01
      0.520000E+02      0.000000E+00      0.400000E+01
      0.520000E+02      0.000000E+00      0.000000E+00
      0.560000E+02      0.000000E+00      0.000000E+00
      0.520000E+02      0.000000E+00      0.400000E+01
      0.560000E+02      0.000000E+00      0.400000E+01
      0.560000E+02      0.000000E+00      0.000000E+00
      0.600000E+02      0.000000E+00      0.000000E+00
      0.560000E+02      0.000000E+00      0.400000E+01
      0.600000E+02      0.000000E+00      0.400000E+01
      0.600000E+02      0.000000E+00      0.000000E+00
      0.640000E+02      0.000000E+00      0.000000E+00
      0.600000E+02      0.000000E+00      0.400000E+01
      0.640000E+02      0.000000E+00      0.400000E+01
      0.640000E+02      0.000000E+00      0.000000E+00
      0.680000E+02      0.000000E+00      0.000000E+00
      0.640000E+02      0.000000E+00      0.400000E+01
      0.680000E+02      0.000000E+00      0.400000E+01
      0.680000E+02      0.000000E+00      0.000000E+00
      0.720000E+02      0.000000E+00      0.000000E+00
      0.680000E+02      0.000000E+00      0.400000E+01
      0.720000E+02      0.000000E+00      0.400000E+01
      0.720000E+02      0.000000E+00      0.000000E+00
      0.760000E+02      0.000000E+00      0.000000E+00
      0.720000E+02      0.000000E+00      0.400000E+01
      0.760000E+02      0.000000E+00      0.400000E+01
      0.760000E+02      0.000000E+00      0.000000E+00
      0.800000E+02      0.000000E+00      0.000000E+00
      0.760000E+02      0.000000E+00      0.400000E+01
      0.800000E+02      0.000000E+00      0.400000E+01
      0.800000E+02      0.000000E+00      0.000000E+00
      0.840000E+02      0.000000E+00      0.000000E+00
      0.800000E+02      0.000000E+00      0.400000E+01
      0.840000E+02      0.000000E+00      0.400000E+01
      0.840000E+02      0.000000E+00      0.000000E+00
      0.880000E+02      0.000000E+00      0.000000E+00
      0.840000E+02      0.000000E+00      0.400000E+01
      0.880000E+02      0.000000E+00      0.400000E+01
      0.880000E+02      0.000000E+00      0.000000E+00
      0.920000E+02      0.000000E+00      0.000000E+00
      0.880000E+02      0.000000E+00      0.400000E+01
      0.920000E+02      0.000000E+00      0.400000E+01
      0.920000E+02      0.000000E+00      0.000000E+00
      0.960000E+02      0.000000E+00      0.000000E+00
      0.920000E+02      0.000000E+00      0.400000E+01
      0.960000E+02      0.000000E+00      0.400000E+01
      0.960000E+02      0.000000E+00      0.000000E+00
      0.100000E+03      0.000000E+00      0.000000E+00
      0.960000E+02      0.000000E+00      0.400000E+01
      0.100000E+03      0.000000E+00      0.400000E+01
      0.100000E+03      0.000000E+00      0.000000E+00
      0.104000E+03      0.000000E+00      0.000000E+00
      0.100000E+03      0.000000E+00      0.400000E+01
      0.104000E+03      0.000000E+00      0.400000E+01
      0.104000E+03      0.000000E+00      0.000000E+00
      0.108000E+03      0.000000E+00      0.000000E+00
      0.104000E+03      0.000000E+00      0.400000E+01
      0.108000E+03      0.000000E+00      0.400000E+01
      0.108000E+03      0.000000E+00      0.000000E+00
      0.112000E+03      0.000000E+00      0.000000E+00
      0.108000E+03      0.000000E+00      0.400000E+01
      0.112000E+03      0.000000E+00      0.400000E+01
      0.112000E+03      0.000000E+00      0.000000E+00
      0.116000E+03      0.000000E+00      0.000000E+00
      0.112000E+03      0.000000E+00      0.400000E+01
      0.116000E+03      0.000000E+00      0.400000E+01
      0.116000E+03      0.000000E+00      0.000000E+00
      0.120000E+03      0.000000E+00      0.000000E+00
      0.116000E+03      0.000000E+00      0.400000E+01
      0.120000E+03      0.000000E+00      0.400000E+01
      0.120000E+03      0.000000E+00      0.000000E+00
      0.124000E+03      0.000000E+00      0.000000E+00
      0.120000E+03      0.000000E+00      0.400000E+01
      0.124000E+03      0.000000E+00      0.400000E+01
      0.124000E+03      0.000000E+00      0.000000E+00
      0.128000E+03      0.000000E+00      0.000000E+00
      0.124000E+03      0.000000E+00      0.400000E+01
      0.128000E+03      0.000000E+00      0.400000E+01
      0.128000E+03      0.000000E+00      0.000000E+00
      0.132000E+03      0.000000E+00      0.000000E+00
      0.128000E+03      0.000000E+00      0.400000E+01
      0.132000E+03      0.000000E+00      0.400000E+01
      0.132000E+03      0.000000E+00      0.000000E+00
      0.136000E+03      0.000000E+00      0.000000E+00
      0.132000E+03      0.000000E+00      0.400000E+01
      0.136000E+03      0.000000E+00      0.400000E+01
      0.136000E+03      0.000000E+00      0.000000E+00
      0.140000E+03      0.000000E+00      0.000000E+00
      0.136000E+03      0.000000E+00      0.400000E+01
      0.140000E+03      0.000000E+00      0.400000E+01
      0.140000E+03      0.000000E+00      0.000000E+00
      0.144000E+03      0.000000E+00      0.000000E+00
      0.140000E+03      0.000000E+00      0.400000E+01
      0.144000E+03      0.000000E+00      0.400000E+01
      0.144000E+03      0.000000E+00      0.000000E+00
      0.148000E+03      0.000000E+00      0.000000E+00
      0.144000E+03      0.000000E+00      0.400000E+01
      0.148000E+03      0.000000E+00      0.400000E+01
      0.148000E+03      0.000000E+00      0.000000E+00
      0.152000E+03      0.000000E+00      0.000000E+00
      0.148000E+03      0.000000E+00      0.400000E+01
      0.152000E+03      0.000000E+00      0.400000E+01
      0.152000E+03      0.000000E+00      0.000000E+00
      0.156000E+03      0.000000E+00      0.000000E+00
      0.152000E+03      0.000000E+00      0.400000E+01
      0.156000E+03      0.000000E+00      0.400000E+01
      0.156000E+03      0.000000E+00      0.000000E+00
      0.160000E+03      0.000000E+00      0.000000E+00
      0.156000E+03      0.000000E+00      0.400000E+01
      0.160000E+03      0.000000E+00      0.400000E+01
      0.160000E+03      0.000000E+00      0.000000E+00
      0.164000E+03      0.000000E+00      0.000000E+00
      0.160000E+03      0.000000E+00      0.400000E+01
      0.164000E+03      0.000000E+00      0.400000E+01
      0.164000E+03      0.000000E+00      0.000000E+00
      0.168000E+03      0.000000E+00      0.000000E+00
      0.164000E+03      0.000000E+00      0.400000E+01
      0.168000E+03      0.000000E+00      0.400000E+01
      0.168000E+03      0.000000E+00      0.000000E+00
      0.172000E+03      0.000000E+00      0.000000E+00
      0.168000E+03      0.000000E+00      0.400000E+01
      0.172000E+03      0.000000E+00      0.400000E+01
      0.172000E+03      0.000000E+00      0.000000E+00
      0.176000E+03      0.000000E+00      0.000000E+00
      0.172000E+03      0.000000E+00      0.400000E+01
      0.176000E+03      0.000000E+00      0.400000E+01
      0.176000E+03      0.000000E+00      0.000000E+00
      0.180000E+03      0.000000E+00      0.000000E+00
      0.176000E+03      0.000000E+00      0.400000E+01
[...]
POINT_DATA             2700
SCALARS gll_data float
LOOKUP_TABLE default
   942.659237878446     
   942.659256465054     
   911.412903095488     
   911.412885856197     
   942.659256465054     
   942.659252339617     
   911.412885856197     
   911.412898664486     
   942.659252339617     
   942.659249206015     
   911.412898664486     
   911.412916374152     
   942.659249206015     
   942.659237453526     
   911.412916374152     
   911.412916703692     
   942.659237453526     
   942.659231996584     
   911.412916703692     
   911.412909353505     
   942.659231996584     
   942.659226299798     
   911.412909353505     
   911.412903546182     
   942.659226299798     
   942.659238352228     
   911.412903546182     
   911.412907653273     
   942.659238352228     
   942.659242091539     
   911.412907653273     
   911.412900326846     
   942.659242091539     
   942.659228052224     
   911.412900326846     
   911.412909599392     
   942.659228052224     
   942.659225924064     
   911.412909599392     
   911.412893820432     
   942.659225924064     
   942.659253442183     
   911.412893820432     
   911.412890854920     
   942.659253442183     
   942.659251896792     
   911.412890854920     
   911.412914399291     
   942.659251896792     
   942.659228639247     
   911.412914399291     
   911.412903946250     
   942.659228639247     
   942.659251140390     
   911.412903946250     
   911.412889401016     
   942.659251140390     
   942.659252293870     
   911.412889401016     
   911.412918673750     
   942.659252293870     
   942.659232543453     
   911.412918673750     
   911.412899442394     
   942.659232543453     
   942.659253407689     
   911.412899442394     
   911.412918197953     
   942.659253407689     
   942.659242697117     
   911.412918197953     
   911.412892682596     
   942.659242697117     
   942.659242697117     
   911.412892682596     
   911.412899835089     
   942.659242697117     
   942.659242697117     
   911.412899835089     
   911.412908331294     
   942.659242697117     
   942.659242697117     
   911.412908331294     
   911.412908331294     
   942.659242697117     
   942.659242697117     
   911.412908331294     
   911.412908331294     
   942.659242697117     
   942.659242697117     
   911.412908331294     
   911.412908331294     
   942.659242697117     
   942.659242697117     
   911.412908331294     
   911.412908331294     
   942.659242697117     
   942.659242697117     
   911.412908331294     
   911.412908331294     
   942.659242697117     
   942.659242697117     
   911.412908331294     
   911.412908331294     
   942.659242697117     
   942.659242697117     
   911.412908331294     
   911.412908331294     
   942.659242697117     
   942.659242697117     
   911.412908331294     
   911.412908331294     
   942.659242697117     
   942.659242697117     
   911.412908331294     
   911.412901178804     
   942.659242697117     
   942.659242697117     
   911.412901178804     
   911.412889995160     
   942.659242697117     
   942.659242697117     
   911.412889995160     
   911.412906987581     
   942.659242697117     
   942.659242697117     
   911.412906987581     
   911.412896237852     
   942.659242697117     
   942.659235360317     
   911.412896237852     
   911.412915426891     
   942.659235360317     
   942.659243254019     
   911.412915426891     
   911.412918281710     
   942.659243254019     
   942.659243254019     
   911.412918281710     
   911.412895481937     
   942.659243254019     
   942.659243254019     
   911.412895481937     
   911.412895481937     
   942.659243254019     
   942.659243254019     
   911.412895481937     
   911.412895481937     
   942.659243254019     
   942.659243254019     
   911.412895481937     
   911.412895481937     
   942.659243254019     
   942.659243254019     
   911.412895481937     
   911.412888329886     
   942.659243254019     
   942.659256224563     
   911.412888329886     
   911.412919750950     
   942.659256224563     
   942.659230840375     
   911.412919750950     
   911.412910469057     
   942.659230840375     
   942.659231954164     
   911.412910469057     
   911.412896670746     
   942.659231954164     
   942.659237031010     
   911.412896670746     
   911.412890388807     
   942.659237031010     
   942.659237031010     
   911.412890388807     
   911.412890388807     
   942.659237031010     
   942.659237031010     
   911.412890388807     
   911.412890388807     
   911.412903095488     
   911.412885856197     
   880.166571796040     
   880.166582961481     
   911.412885856197     
   911.412898664486     
   880.166582961481     
   880.166551655351     
   911.412898664486     
   911.412916374152     
   880.166551655351     
   880.166572814618     
   911.412916374152     
   911.412916703692     
   880.166572814618     
   880.166564860420     
   911.412916703692     
   911.412909353505     
   880.166564860420     
   880.166556967750     
   911.412909353505     
   911.412903546182     
   880.166556967750     
   880.166551728357     
   911.412903546182     
   911.412907653273     
   880.166551728357     
   880.166548702002     
   911.412907653273     
   911.412900326846     
   880.166548702002     
   880.166580892984     
   911.412900326846     
   911.412909599392     
   880.166580892984     
   880.166567169961     
   911.412909599392     
   911.412893820432     
   880.166567169961     
   880.166576504952     
   911.412893820432     
   911.412890854920     
   880.166576504952     
   880.166579508910     
   911.412890854920     
   911.412914399291     
   880.166579508910     
   880.166575128014     
   911.412914399291     
   911.412903946250     
   880.166575128014     
   880.166553521247     
   911.412903946250     
   911.412889401016     
   880.166553521247     
   880.166572108393     
   911.412889401016     
   911.412918673750     
   880.166572108393     
   880.166581536980     
   911.412918673750     
   911.412899442394     
   880.166581536980     
   880.166547988371     
   911.412899442394     
   911.412918197953     
   880.166547988371     
   880.166582032025     
   911.412918197953     
   911.412892682596     
   880.166582032025     
   880.166559014694     
   911.412892682596     
   911.412899835089     
   880.166559014694     
   880.166566904597     
   911.412899835089     
   911.412908331294     
   880.166566904597     
   880.166550659284     
   911.412908331294     
   911.412908331294     
   880.166550659284     
   880.166557043251     
   911.412908331294     
   911.412908331294     
   880.166557043251     
   880.166557043251     
   911.412908331294     
   911.412908331294     
   880.166557043251     
   880.166557043251     
   911.412908331294     
   911.412908331294     
   880.166557043251     
   880.166557043251     
   911.412908331294     
   911.412908331294     
   880.166557043251     
   880.166557043251     
   911.412908331294     
   911.412908331294     
   880.166557043251     
   880.166557043251     
   911.412908331294     
   911.412908331294     
   880.166557043251     
   880.166564756414     
   911.412908331294     
   911.412908331294     
   880.166564756414     
   880.166552255277     
   911.412908331294     
   911.412901178804     
   880.166552255277     
   880.166557310039     
   911.412901178804     
   911.412889995160     
   880.166557310039     
   880.166560015612     
   911.412889995160     
   911.412906987581     
   880.166560015612     
   880.166573150676     
   911.412906987581     
   911.412896237852     
   880.166573150676     
   880.166552303864     
   911.412896237852     
   911.412915426891     
   880.166552303864     
   880.166553539821     
   911.412915426891     
   911.412918281710     
   880.166553539821     
   880.166556552788     
   911.412918281710     
   911.412895481937     
   880.166556552788     
   880.166557356346     
   911.412895481937     
   911.412895481937     
   880.166557356346     
   880.166558958698     
   911.412895481937     
   911.412895481937     
   880.166558958698     
   880.166558958698     
   911.412895481937     
   911.412895481937     
   880.166558958698     
   880.166549612435     
   911.412895481937     
   911.412888329886     
   880.166549612435     
   880.166569639476     
   911.412888329886     
   911.412919750950     
   880.166569639476     
   880.166559126952     
   911.412919750950     
   911.412910469057     
   880.166559126952     
   880.166569829886     
   911.412910469057     
   911.412896670746     
   880.166569829886     
   880.166572208227     
   911.412896670746     
   911.412890388807     
   880.166572208227     
   880.166568968413     
   911.412890388807     
   911.412890388807     
   880.166568968413     
   880.166568968413     
   911.412890388807     
   911.412890388807     
   880.166568968413     
   880.166568968413     
   880.166571796040     
   880.166582961481     
   848.920289756258     
   848.920305217102     
   880.166582961481     
   880.166551655351     
   848.920305217102     
   848.920303867760     
   880.166551655351     
   880.166572814618     
   848.920303867760     
   848.920304840601     
   880.166572814618     
   880.166564860420     
   848.920304840601     
   848.920292465034     
   880.166564860420     
   880.166556967750     
   848.920292465034     
   848.920298348981     
   880.166556967750     
   880.166551728357     
   848.920298348981     
   848.920305739115     
   880.166551728357     
   880.166548702002     
   848.920305739115     
   848.920274749363     
   880.166548702002     
   880.166580892984     
   848.920274749363     
   848.920286077009     
   880.166580892984     
   880.166567169961     
   848.920286077009     
   848.920288556212     
   880.166567169961     
   880.166576504952     
   848.920288556212     
   848.920269466415     
   880.166576504952     
   880.166579508910     
   848.920269466415     
   848.920289836525     
   880.166579508910     
   880.166575128014     
   848.920289836525     
   848.920274950674     
   880.166575128014     
   880.166553521247     
   848.920274950674     
   848.920288592611     
   880.166553521247     
   880.166572108393     
   848.920288592611     
   848.920274643123     
   880.166572108393     
   880.166581536980     
   848.920274643123     
   848.920291624898     
   880.166581536980     
   880.166547988371     
   848.920291624898     
   848.920282900364     
   880.166547988371     
   880.166582032025     
   848.920282900364     
   848.920276738777     
   880.166582032025     
   880.166559014694     
   848.920276738777     
   848.920282907417     
   880.166559014694     
   880.166566904597     
   848.920282907417     
   848.920283939972     
   880.166566904597     
   880.166550659284     
   848.920283939972     
   848.920291351248     
   880.166550659284     
   880.166557043251     
   848.920291351248     
   848.920273882708     
   880.166557043251     
   880.166557043251     
   848.920273882708     
   848.920283591164     
   880.166557043251     
   880.166557043251     
   848.920283591164     
   848.920299847187     
   880.166557043251     
   880.166557043251     
   848.920299847187     
   848.920274450447     
   880.166557043251     
   880.166557043251     
   848.920274450447     
   848.920274840125     
   880.166557043251     
   880.166557043251     
   848.920274840125     
   848.920298888241     
   880.166557043251     
   880.166564756414     
   848.920298888241     
   848.920302549321     
   880.166564756414     
   880.166552255277     
   848.920302549321     
   848.920287624155     
   880.166552255277     
   880.166557310039     
   848.920287624155     
   848.920283317968     
   880.166557310039     
   880.166560015612     
   848.920283317968     
   848.920276736985     
   880.166560015612     
   880.166573150676     
   848.920276736985     
   848.920296818722     
   880.166573150676     
   880.166552303864     
   848.920296818722     
   848.920282006495     
   880.166552303864     
   880.166553539821     
   848.920282006495     
   848.920289983128     
   880.166553539821     
   880.166556552788     
   848.920289983128     
   848.920287045599     
   880.166556552788     
   880.166557356346     
   848.920287045599     
   848.920293793840     
   880.166557356346     
   880.166558958698     
   848.920293793840     
   848.920280504569     
   880.166558958698     
   880.166558958698     
   848.920280504569     
   848.920287625183     
   880.166558958698     
   880.166549612435     
   848.920287625183     
   848.920299669370     
   880.166549612435     
   880.166569639476     
   848.920299669370     
   848.920291146104     
   880.166569639476     
   880.166559126952     
   848.920291146104     
   848.920299590460     
   880.166559126952     
   880.166569829886     
   848.920299590460     
   848.920272805291     
   880.166569829886     
   880.166572208227     
   848.920272805291     
   848.920275796530     
   880.166572208227     
   880.166568968413     
   848.920275796530     
   848.920301682996     
   880.166568968413     
   880.166568968413     
   848.920301682996     
   848.920301682996     
   880.166568968413     
   880.166568968413     
   848.920301682996     
   848.920301682996     
   848.920289756258     
   848.920305217102     
   817.673949130036     
   817.673944830195     
   848.920305217102     
   848.920303867760     
   817.673944830195     
   817.673934276527     
   848.920303867760     
   848.920304840601     
   817.673934276527     
   817.673933292179     
   848.920304840601     
   848.920292465034     
   817.673933292179     
   817.673969525299     
   848.920292465034     
   848.920298348981     
   817.673969525299     
   817.673962275093     
   848.920298348981     
   848.920305739115     
   817.673962275093     
   817.673950207923     
   848.920305739115     
   848.920274749363     
   817.673950207923     
   817.673959210386     
   848.920274749363     
   848.920286077009     
   817.673959210386     
   817.673935524176     
   848.920286077009     
   848.920288556212     
   817.673935524176     
   817.673953292932     
   848.920288556212     
   848.920269466415     
   817.673953292932     
   817.673940956503     
   848.920269466415     
   848.920289836525     
   817.673940956503     
   817.673938100562     
   848.920289836525     
   848.920274950674     
   817.673938100562     
   817.673946543594     
   848.920274950674     
   848.920288592611     
   817.673946543594     
   817.673960821405     
   848.920288592611     
   848.920274643123     
   817.673960821405     
   817.673945455988     
   848.920274643123     
   848.920291624898     
   817.673945455988     
   817.673957084257     
   848.920291624898     
   848.920282900364     
   817.673957084257     
   817.673953277150     
   848.920282900364     
   848.920276738777     
   817.673953277150     
   817.673952856117     
   848.920276738777     
   848.920282907417     
   817.673952856117     
   817.673961548927     
   848.920282907417     
   848.920283939972     
   817.673961548927     
   817.673951043518     
   848.920283939972     
   848.920291351248     
   817.673951043518     
   817.673959175315     
   848.920291351248     
   848.920273882708     
   817.673959175315     
   817.673963788202     
   848.920273882708     
   848.920283591164     
   817.673963788202     
   817.673942302573     
   848.920283591164     
   848.920299847187     
   817.673942302573     
   817.673935346989     
   848.920299847187     
   848.920274450447     
   817.673935346989     
   817.673944146866     
   848.920274450447     
   848.920274840125     
   817.673944146866     
   817.673939784663     
   848.920274840125     
   848.920298888241     
   817.673939784663     
   817.673931527616     
   848.920298888241     
   848.920302549321     
   817.673931527616     
   817.673958909266     
   848.920302549321     
   848.920287624155     
   817.673958909266     
   817.673948150716     
   848.920287624155     
   848.920283317968     
   817.673948150716     
   817.673943621216     
   848.920283317968     
   848.920276736985     
   817.673943621216     
   817.673953464366     
   848.920276736985     
   848.920296818722     
   817.673953464366     
   817.673967179968     
   848.920296818722     
   848.920282006495     
   817.673967179968     
   817.673951470654     
   848.920282006495     
   848.920289983128     
   817.673951470654     
   817.673957708523     
   848.920289983128     
   848.920287045599     
   817.673957708523     
   817.673935464958     
   848.920287045599     
   848.920293793840     
   817.673935464958     
   817.673946208625     
   848.920293793840     
   848.920280504569     
   817.673946208625     
   817.673935365807     
   848.920280504569     
   848.920287625183     
   817.673935365807     
   817.673935589088     
   848.920287625183     
   848.920299669370     
   817.673935589088     
   817.673962052371     
   848.920299669370     
   848.920291146104     
   817.673962052371     
   817.673969731931     
   848.920291146104     
   848.920299590460     
   817.673969731931     
   817.673942844354     
   848.920299590460     
   848.920272805291     
   817.673942844354     
   817.673934432321     
   848.920272805291     
   848.920275796530     
   817.673934432321     
   817.673956224283     
   848.920275796530     
   848.920301682996     
   817.673956224283     
   817.673968771134     
   848.920301682996     
   848.920301682996     
   817.673968771134     
   817.673943848375     
   848.920301682996     
   848.920301682996     
   817.673943848375     
   817.673943848375     
   817.673949130036     
   817.673944830195     
   786.427615231810     
   786.427608225034     
   817.673944830195     
   817.673934276527     
   786.427608225034     
   786.427609828660     
   817.673934276527     
   817.673933292179     
   786.427609828660     
   786.427628904927     
   817.673933292179     
   817.673969525299     
   786.427628904927     
   786.427600078458     
   817.673969525299     
   817.673962275093     
   786.427600078458     
   786.427622704969     
   817.673962275093     
   817.673950207923     
   786.427622704969     
   786.427621728558     
   817.673950207923     
   817.673959210386     
   786.427621728558     
   786.427608833422     
   817.673959210386     
   817.673935524176     
   786.427608833422     
   786.427611042353     
   817.673935524176     
   817.673953292932     
   786.427611042353     
   786.427614444826     
   817.673953292932     
   817.673940956503     
   786.427614444826     
   786.427606338927     
   817.673940956503     
   817.673938100562     
   786.427606338927     
   786.427623193333     
   817.673938100562     
   817.673946543594     
   786.427623193333     
   786.427607697676     
   817.673946543594     
   817.673960821405     
   786.427607697676     
   786.427622874280     
   817.673960821405     
   817.673945455988     
   786.427622874280     
   786.427597154749     
   817.673945455988     
   817.673957084257     
   786.427597154749     
   786.427606238513     
   817.673957084257     
   817.673953277150     
   786.427606238513     
   786.427600722848     
   817.673953277150     
   817.673952856117     
   786.427600722848     
   786.427613890882     
   817.673952856117     
   817.673961548927     
   786.427613890882     
   786.427630237547     
   817.673961548927     
   817.673951043518     
   786.427630237547     
   786.427616469923     
   817.673951043518     