 -4.000000000000000E-002    0.000000000000000E+000
 -3.990000000000000E-002    0.000000000000000E+000
 -3.980000000000000E-002    0.000000000000000E+000
 -3.970000000000000E-002    0.000000000000000E+000
 -3.960000000000000E-002    0.000000000000000E+000
 -3.950000000000000E-002    0.000000000000000E+000
 -3.940000000000000E-002    0.000000000000000E+000
 -3.930000000000000E-002    0.000000000000000E+000
 -3.920000000000000E-002    0.000000000000000E+000
 -3.910000000000000E-002    0.000000000000000E+000
 -3.900000000000000E-002    0.000000000000000E+000
 -3.890000000000000E-002    0.000000000000000E+000
 -3.880000000000000E-002    0.000000000000000E+000
 -3.870000000000000E-002    0.000000000000000E+000
 -3.860000000000000E-002    0.000000000000000E+000
 -3.850000000000000E-002    0.000000000000000E+000
 -3.840000000000000E-002    0.000000000000000E+000
 -3.830000000000000E-002    0.000000000000000E+000
 -3.820000000000000E-002    0.000000000000000E+000
 -3.810000000000000E-002    0.000000000000000E+000
 -3.800000000000000E-002    0.000000000000000E+000
 -3.790000000000000E-002    0.000000000000000E+000
 -3.780000000000000E-002    0.000000000000000E+000
 -3.770000000000000E-002    0.000000000000000E+000
 -3.760000000000000E-002    0.000000000000000E+000
 -3.750000000000000E-002    0.000000000000000E+000
 -3.740000000000000E-002    0.000000000000000E+000
 -3.730000000000000E-002    0.000000000000000E+000
 -3.720000000000000E-002    0.000000000000000E+000
 -3.710000000000000E-002    0.000000000000000E+000
 -3.700000000000000E-002    0.000000000000000E+000
 -3.690000000000000E-002    0.000000000000000E+000
 -3.680000000000000E-002    0.000000000000000E+000
 -3.670000000000000E-002    0.000000000000000E+000
 -3.660000000000000E-002    0.000000000000000E+000
 -3.650000000000000E-002    0.000000000000000E+000
 -3.640000000000000E-002    0.000000000000000E+000
 -3.630000000000000E-002    0.000000000000000E+000
 -3.620000000000000E-002    0.000000000000000E+000
 -3.610000000000000E-002    0.000000000000000E+000
 -3.600000000000000E-002    0.000000000000000E+000
 -3.590000000000000E-002    0.000000000000000E+000
 -3.580000000000000E-002    0.000000000000000E+000
 -3.570000000000000E-002    0.000000000000000E+000
 -3.560000000000000E-002    0.000000000000000E+000
 -3.550000000000000E-002    0.000000000000000E+000
 -3.540000000000000E-002    0.000000000000000E+000
 -3.530000000000000E-002    0.000000000000000E+000
 -3.520000000000000E-002    0.000000000000000E+000
 -3.510000000000000E-002    0.000000000000000E+000
 -3.500000000000000E-002    0.000000000000000E+000
 -3.490000000000000E-002    0.000000000000000E+000
 -3.480000000000000E-002    0.000000000000000E+000
 -3.470000000000000E-002    0.000000000000000E+000
 -3.460000000000000E-002    0.000000000000000E+000
 -3.450000000000000E-002    0.000000000000000E+000
 -3.440000000000000E-002    0.000000000000000E+000
 -3.430000000000000E-002    0.000000000000000E+000
 -3.420000000000000E-002   -2.138211768073757E-048
 -3.410000000000000E-002   -3.427812584062656E-047
 -3.400000000000000E-002   -1.072442761609201E-046
 -3.390000000000000E-002   -2.154105745805162E-046
 -3.380000000000000E-002   -4.210521125793395E-046
 -3.370000000000000E-002   -8.249317934626425E-046
 -3.360000000000000E-002   -1.506027894543614E-045
 -3.350000000000000E-002   -2.508642224988785E-045
 -3.340000000000000E-002   -4.091387979577046E-045
 -3.330000000000000E-002   -6.096396836389600E-045
 -3.320000000000000E-002   -8.597301292496839E-045
 -3.310000000000000E-002   -1.099908963003802E-044
 -3.300000000000000E-002   -1.029605004031273E-044
 -3.290000000000000E-002   -5.176713646061482E-045
 -3.280000000000000E-002    9.031046861981613E-045
 -3.270000000000000E-002    4.094593334143081E-044
 -3.260000000000000E-002    9.978527060186067E-044
 -3.250000000000000E-002    1.993942073526650E-043
 -3.240000000000000E-002    3.545983729531940E-043
 -3.230000000000000E-002    5.773778084084922E-043
 -3.220000000000000E-002    8.698161077266139E-043
 -3.210000000000000E-002    1.216159567088197E-042
 -3.200000000000000E-002    1.560397498750465E-042
 -3.190000000000000E-002    1.788103389314101E-042
 -3.180000000000000E-002    1.698713976004021E-042
 -3.170000000000000E-002    9.835860595160326E-043
 -3.160000000000000E-002   -7.870964932193015E-043
 -3.150000000000000E-002   -4.153379065008509E-042
 -3.140000000000000E-002   -9.707713177273533E-042
 -3.130000000000000E-002   -1.797260778247425E-041
 -3.120000000000000E-002   -2.919203088770145E-041
 -3.110000000000000E-002   -4.302642963019603E-041
 -3.100000000000000E-002   -5.816513258362635E-041
 -3.090000000000000E-002   -7.191078250639236E-041
 -3.080000000000000E-002   -7.983601022566372E-041
 -3.070000000000000E-002   -7.569770050425311E-041
 -3.060000000000000E-002   -5.183912934512495E-041
 -3.050000000000000E-002   -3.598052450678616E-043
 -3.040000000000000E-002    8.468516006405319E-041
 -3.030000000000000E-002    2.039531121491337E-040
 -3.020000000000000E-002    3.485347812290233E-040
 -3.010000000000000E-002    4.954526385761002E-040
 -3.000000000000000E-002    6.044114585939832E-040
 -2.990000000000000E-002    6.182027345560759E-040
 -2.980000000000000E-002    4.701409506597143E-040
 -2.970000000000000E-002    1.025793285403869E-040
 -2.960000000000000E-002   -4.994772984381483E-040
 -2.950000000000000E-002   -1.257094285534763E-039
 -2.940000000000000E-002   -1.929413593701863E-039
 -2.930000000000000E-002   -2.036288239108302E-039
 -2.920000000000000E-002   -7.885566787298230E-040
 -2.910000000000000E-002    2.944170919294568E-039
 -2.900000000000000E-002    1.058348886057203E-038
 -2.890000000000000E-002    2.365087885201772E-038
 -2.880000000000000E-002    4.336692049367771E-038
 -2.870000000000000E-002    6.997505300748787E-038
 -2.860000000000000E-002    1.017464579228828E-037
 -2.850000000000000E-002    1.336738455894889E-037
 -2.840000000000000E-002    1.559511720016674E-037
 -2.830000000000000E-002    1.524679373864140E-037
 -2.820000000000000E-002    9.971964642799795E-038
 -2.810000000000000E-002   -3.326490714296879E-038
 -2.800000000000000E-002   -2.831798017465928E-037
 -2.790000000000000E-002   -6.879318426883319E-037
 -2.780000000000000E-002   -1.278383173279441E-036
 -2.770000000000000E-002   -2.065530510486072E-036
 -2.760000000000000E-002   -3.022771787560602E-036
 -2.750000000000000E-002   -4.063746842007021E-036
 -2.740000000000000E-002   -5.017532065058488E-036
 -2.730000000000000E-002   -5.604674018171306E-036
 -2.720000000000000E-002   -5.419645612734800E-036
 -2.710000000000000E-002   -3.927484247483502E-036
 -2.700000000000000E-002   -4.843992236816454E-037
 -2.690000000000000E-002    5.606633132122044E-036
 -2.680000000000000E-002    1.499437167272813E-035
 -2.670000000000000E-002    2.812323012218923E-035
 -2.660000000000000E-002    4.501900671299928E-035
 -2.650000000000000E-002    6.502130458672851E-035
 -2.640000000000000E-002    8.647964828200976E-035
 -2.630000000000000E-002    1.064460308939972E-034
 -2.620000000000000E-002    1.204146707042149E-034
 -2.610000000000000E-002    1.221787559579263E-034
 -2.600000000000000E-002    1.038910958460628E-034
 -2.590000000000000E-002    5.642693342255842E-035
 -2.580000000000000E-002   -2.984999469093731E-035
 -2.570000000000000E-002   -1.638303832037147E-034
 -2.560000000000000E-002   -3.518528349211014E-034
 -2.550000000000000E-002   -5.953435807434205E-034
 -2.540000000000000E-002   -8.879746623525252E-034
 -2.530000000000000E-002   -1.212513632281174E-033
 -2.520000000000000E-002   -1.537662178016242E-033
 -2.510000000000000E-002   -1.815315024378100E-033
 -2.500000000000000E-002   -1.978815334921361E-033
 -2.490000000000000E-002   -1.942909511009761E-033
 -2.480000000000000E-002   -1.606209757016862E-033
 -2.470000000000000E-002   -8.570188512648073E-034
 -2.460000000000000E-002    4.166548554600261E-034
 -2.450000000000000E-002    2.312203906558459E-033
 -2.440000000000000E-002    4.892234548205277E-033
 -2.430000000000000E-002    8.159140067445636E-033
 -2.420000000000000E-002    1.202512990408901E-032
 -2.410000000000000E-002    1.627932264582240E-032
 -2.400000000000000E-002    2.055463612231126E-032
 -2.390000000000000E-002    2.429860098653320E-032
 -2.380000000000000E-002    2.675371263790561E-032
 -2.370000000000000E-002    2.695462295956827E-032
 -2.360000000000000E-002    2.375083706616505E-032
 -2.350000000000000E-002    1.586470684347060E-032
 -2.340000000000000E-002    1.994735812554218E-033
 -2.330000000000000E-002   -1.902693118573025E-032
 -2.320000000000000E-002   -4.801674876915304E-032
 -2.310000000000000E-002   -8.516109809839278E-032
 -2.300000000000000E-002   -1.296843401030514E-031
 -2.290000000000000E-002   -1.794824282913826E-031
 -2.280000000000000E-002   -2.307557701850274E-031
 -2.270000000000000E-002   -2.776914193488409E-031
 -2.260000000000000E-002   -3.122627826274945E-031
 -2.250000000000000E-002   -3.242314938092671E-031
 -2.240000000000000E-002   -3.014475788163584E-031
 -2.230000000000000E-002   -2.305479151027571E-031
 -2.220000000000000E-002   -9.814270101326517E-032
 -2.210000000000000E-002    1.074481419469151E-031
 -2.200000000000000E-002    3.938957476170826E-031
 -2.190000000000000E-002    7.620622327763397E-031
 -2.180000000000000E-002    1.202857297818363E-030
 -2.170000000000000E-002    1.694029284901159E-030
 -2.160000000000000E-002    2.197294272727839E-030
 -2.150000000000000E-002    2.656331859352170E-030
 -2.140000000000000E-002    2.996282411056423E-030
 -2.130000000000000E-002    3.125428858575115E-030
 -2.120000000000000E-002    2.939738531626055E-030
 -2.110000000000000E-002    2.330813318397421E-030
 -2.100000000000000E-002    1.197569704976307E-030
 -2.090000000000000E-002   -5.384088100831050E-031
 -2.080000000000000E-002   -2.914404149061034E-030
 -2.070000000000000E-002   -5.906147708883791E-030
 -2.060000000000000E-002   -9.407315009724670E-030
 -2.050000000000000E-002   -1.321144910740559E-029
 -2.040000000000000E-002   -1.699945127393441E-029
 -2.030000000000000E-002   -2.033612566954137E-029
 -2.020000000000000E-002   -2.267937525682537E-029
 -2.010000000000000E-002   -2.340525568956674E-029
 -2.000000000000000E-002   -2.185120838713189E-029
 -1.990000000000000E-002   -1.737837279754202E-029
 -1.980000000000000E-002   -9.451792713687881E-030
 -1.970000000000000E-002    2.265128120525845E-030
 -1.960000000000000E-002    1.780842330915543E-029
 -1.950000000000000E-002    3.681297227355234E-029
 -1.940000000000000E-002    5.842548002289068E-029
 -1.930000000000000E-002    8.124492035993534E-029
 -1.920000000000000E-002    1.033051636321066E-028
 -1.910000000000000E-002    1.221136719358076E-028
 -1.900000000000000E-002    1.347580568198779E-028
 -1.890000000000000E-002    1.380872522635439E-028
 -1.880000000000000E-002    1.289681103558081E-028
 -1.870000000000000E-002    1.046098734184822E-028
 -1.860000000000000E-002    6.293974701550382E-029
 -1.850000000000000E-002    3.002918339126124E-030
 -1.840000000000000E-002   -7.464819612651638E-029
 -1.830000000000000E-002   -1.676185768508813E-028
 -1.820000000000000E-002   -2.714356893898478E-028
 -1.810000000000000E-002   -3.794624874918464E-028
 -1.800000000000000E-002   -4.829998838387111E-028
 -1.790000000000000E-002   -5.716107029744587E-028
 -1.780000000000000E-002   -6.336804671481980E-028
 -1.770000000000000E-002   -6.572101438628906E-028
 -1.760000000000000E-002   -6.308120568845127E-028
 -1.750000000000000E-002   -5.448530598105324E-028
 -1.740000000000000E-002   -3.926670862414922E-028
 -1.730000000000000E-002   -1.717356958615271E-028
 -1.720000000000000E-002    1.152775864721525E-028
 -1.710000000000000E-002    4.597583539340258E-028
 -1.700000000000000E-002    8.467514607273347E-028
 -1.690000000000000E-002    1.255047158963780E-027
 -1.680000000000000E-002    1.657806003125744E-027
 -1.670000000000000E-002    2.023747888388579E-027
 -1.660000000000000E-002    2.318882868644225E-027
 -1.650000000000000E-002    2.508704160347847E-027
 -1.640000000000000E-002    2.560713618829624E-027
 -1.630000000000000E-002    2.447108246452368E-027
 -1.620000000000000E-002    2.147414173610861E-027
 -1.610000000000000E-002    1.650840568659482E-027
 -1.600000000000000E-002    9.581286541922626E-028
 -1.590000000000000E-002    8.268179101575882E-029
 -1.580000000000000E-002   -9.491711333734402E-028
 -1.570000000000000E-002   -2.098887151978555E-027
 -1.560000000000000E-002   -3.317401270792099E-027
 -1.550000000000000E-002   -4.547723403097676E-027
 -1.540000000000000E-002   -5.728268250063343E-027
 -1.530000000000000E-002   -6.796643458199075E-027
 -1.520000000000000E-002   -7.693536465100791E-027
 -1.510000000000000E-002   -8.366297474090191E-027
 -1.500000000000000E-002   -8.771754574392951E-027
 -1.490000000000000E-002   -8.877813979286071E-027
 -1.480000000000000E-002   -8.663438918113318E-027
 -1.470000000000000E-002   -8.116699233338444E-027
 -1.460000000000000E-002   -7.230735510116143E-027
 -1.450000000000000E-002   -5.997701071591146E-027
 -1.440000000000000E-002   -4.401007589297770E-027
 -1.430000000000000E-002   -2.406554470536140E-027
 -1.420000000000000E-002    4.602563053008278E-029
 -1.410000000000000E-002    3.050647630742978E-027
 -1.400000000000000E-002    6.738715505353034E-027
 -1.390000000000000E-002    1.127760614854257E-026
 -1.380000000000000E-002    1.686130259562158E-026
 -1.370000000000000E-002    2.369073862825468E-026
 -1.360000000000000E-002    3.194193504032624E-026
 -1.350000000000000E-002    4.172036076929428E-026
 -1.340000000000000E-002    5.300133969704556E-026
 -1.330000000000000E-002    6.555799145049371E-026
 -1.320000000000000E-002    7.888017178014749E-026
 -1.310000000000000E-002    9.209075431273940E-026
 -1.300000000000000E-002    1.038685325646480E-025
 -1.290000000000000E-002    1.123900921289878E-025
 -1.280000000000000E-002    1.153059459257092E-025
 -1.270000000000000E-002    1.097681367493326E-025
 -1.260000000000000E-002    9.252787523914890E-026
 -1.250000000000000E-002    6.012051751580880E-026
 -1.240000000000000E-002    9.151768453140151E-027
 -1.230000000000000E-002   -6.330658443924911E-026
 -1.220000000000000E-002   -1.592130917845569E-025
 -1.210000000000000E-002   -2.789599699827141E-025
 -1.200000000000000E-002   -4.207124693217890E-025
 -1.190000000000000E-002   -5.797336946682119E-025
 -1.180000000000000E-002   -7.477607368935631E-025
 -1.170000000000000E-002   -9.125188635636374E-025
 -1.160000000000000E-002   -1.057473127632116E-024
 -1.150000000000000E-002   -1.161928116492186E-024
 -1.140000000000000E-002   -1.201585673313094E-024
 -1.130000000000000E-002   -1.149659481219754E-024
 -1.120000000000000E-002   -9.786207093429148E-025
 -1.110000000000000E-002   -6.626088963647638E-025
 -1.100000000000000E-002   -1.804791461841380E-025
 -1.090000000000000E-002    4.806061037261663E-025
 -1.080000000000000E-002    1.321229033248023E-024
 -1.070000000000000E-002    2.325680654502432E-024
 -1.060000000000000E-002    3.458211727510615E-024
 -1.050000000000000E-002    4.660011182966843E-024
 -1.040000000000000E-002    5.847429571795350E-024
 -1.030000000000000E-002    6.911979458385934E-024
 -1.020000000000000E-002    7.722646505094837E-024
 -1.010000000000000E-002    8.130954863295877E-024
 -1.000000000000000E-002    7.979113205917769E-024
 -9.899999999999999E-003    7.111363390402676E-024
 -9.800000000000000E-003    5.388379564337405E-024
 -9.699999999999999E-003    2.704267867132182E-024
 -9.599999999999999E-003   -9.946744678408277E-025
 -9.500000000000000E-003   -5.690627220178962E-024
 -9.399999999999999E-003   -1.127591748972313E-023
 -9.299999999999999E-003   -1.753756725072398E-023
 -9.200000000000000E-003   -2.414681222447871E-023
 -9.099999999999999E-003   -3.065578928768341E-023
 -8.999999999999999E-003   -3.650350544118079E-023
 -8.900000000000000E-003   -4.103289758263253E-023
 -8.799999999999999E-003   -4.352030867463793E-023
 -8.699999999999999E-003   -4.321799686273637E-023
 -8.600000000000000E-003   -3.940923529824525E-023
 -8.499999999999999E-003   -3.147458019376911E-023
 -8.399999999999999E-003   -1.896645578376339E-023
 -8.300000000000000E-003   -1.688028037260656E-024
 -8.199999999999999E-003    2.022902735101337E-023
 -8.100000000000000E-003    4.625435202359120E-023
 -8.000000000000000E-003    7.540361533026620E-023
 -7.899999999999999E-003    1.062058874572797E-022
 -7.800000000000000E-003    1.367014259484101E-022
 -7.699999999999999E-003    1.644767516569001E-022
 -7.599999999999999E-003    1.867428584163421E-022
 -7.499999999999999E-003    2.004600380822507E-022
 -7.399999999999999E-003    2.025102249600493E-022
 -7.299999999999999E-003    1.899144750306414E-022
 -7.199999999999999E-003    1.600890585286746E-022
 -7.100000000000000E-003    1.111297898150202E-022
 -6.999999999999999E-003    4.210958359752686E-023
 -6.899999999999999E-003   -4.662927620750556E-023
 -6.800000000000000E-003   -1.532110498504686E-022
 -6.699999999999999E-003   -2.740154503610198E-022
 -6.599999999999999E-003   -4.035462552975208E-022
 -6.499999999999999E-003   -5.344069641535863E-022
 -6.399999999999999E-003   -6.574074814345997E-022
 -6.299999999999999E-003   -7.618232944012520E-022
 -6.199999999999999E-003   -8.358222680878302E-022
 -6.100000000000000E-003   -8.670648482271845E-022
 -5.999999999999999E-003   -8.434736606187614E-022
 -5.899999999999999E-003   -7.541556358231388E-022
 -5.800000000000000E-003   -5.904453703142588E-022
 -5.699999999999999E-003   -3.470224225736456E-022
 -5.599999999999999E-003   -2.304095874799890E-023
 -5.499999999999999E-003    3.768055092951303E-022
 -5.399999999999999E-003    8.413742738550128E-022
 -5.299999999999999E-003    1.352416443833523E-021
 -5.199999999999999E-003    1.884278753117807E-021
 -5.099999999999999E-003    2.404062681674321E-021
 -4.999999999999999E-003    2.872337318668377E-021
 -4.899999999999999E-003    3.244476994809291E-021
 -4.799999999999999E-003    3.472669198534810E-021
 -4.699999999999999E-003    3.508604621198506E-021
 -4.599999999999999E-003    3.306803666626812E-021
 -4.499999999999999E-003    2.828490128640053E-021
 -4.399999999999999E-003    2.045846098494181E-021
 -4.299999999999999E-003    9.464338584465008E-022
 -4.199999999999999E-003   -4.625048914403195E-022
 -4.099999999999999E-003   -2.150214942935067E-021
 -3.999999999999999E-003   -4.059436177425961E-021
 -3.899999999999999E-003   -6.104672496293804E-021
 -3.799999999999999E-003   -8.172116944889283E-021
 -3.699999999999999E-003   -1.012161262101551E-020
 -3.599999999999999E-003   -1.179094255775012E-020
 -3.499999999999999E-003   -1.300264951629948E-020
 -3.399999999999999E-003   -1.357343275896062E-020
 -3.299999999999999E-003   -1.332598318900372E-020
 -3.199999999999999E-003   -1.210290602313318E-020
 -3.099999999999999E-003   -9.782168157679187E-021
 -2.999999999999999E-003   -6.293248591817038E-021
 -2.899999999999999E-003   -1.632961689990555E-021
 -2.799999999999999E-003    4.120252146676673E-021
 -2.699999999999999E-003    1.079495496072199E-020
 -2.599999999999999E-003    1.811964960963410E-020
 -2.499999999999999E-003    2.572143570863634E-020
 -2.399999999999999E-003    3.313161772914995E-020
 -2.299999999999999E-003    3.979925278649348E-020
 -2.199999999999999E-003    4.511325251790668E-020
 -2.099999999999999E-003    4.843314490468160E-020
 -1.999999999999999E-003    4.912795017621633E-020
 -1.899999999999999E-003    4.662210903781731E-020
 -1.799999999999999E-003    4.044641331858116E-020
 -1.699999999999999E-003    3.029143738458181E-020
 -1.599999999999999E-003    1.606013605839154E-020
 -1.499999999999999E-003   -2.084201931527412E-021
 -1.399999999999999E-003   -2.367887833449551E-020
 -1.299999999999999E-003   -4.793595616685177E-020
 -1.199999999999999E-003   -7.373391815276478E-020
 -1.099999999999999E-003   -9.963066228028716E-020
 -9.999999999999989E-004   -1.239008895066535E-019
 -8.999999999999990E-004   -1.445997875716409E-019
 -7.999999999999990E-004   -1.596534708755232E-019
 -6.999999999999989E-004   -1.669750306291010E-019
 -5.999999999999990E-004   -1.646029305906922E-019
 -4.999999999999989E-004   -1.508564027511843E-019
 -3.999999999999989E-004   -1.245005480653382E-019
 -2.999999999999989E-004   -8.491186471377515E-020
 -1.999999999999989E-004   -3.223294878716524E-020
 -9.999999999999892E-005    3.249573004919109E-020
  1.084202172485504E-018    1.072400941243383E-019
  1.000000000000011E-004    1.889255072098492E-019
  2.000000000000011E-004    2.734504474186166E-019
  3.000000000000011E-004    3.557715992539290E-019
  4.000000000000011E-004    4.300659262871704E-019
  5.000000000000011E-004    4.899751365973473E-019
  6.000000000000011E-004    5.289285733491897E-019
  7.000000000000011E-004    5.405396363842038E-019
  8.000000000000011E-004    5.190606240773202E-019
  9.000000000000012E-004    4.598779009963683E-019
  1.000000000000001E-003    3.600205095504449E-019
  1.100000000000001E-003    2.186518202530618E-019
  1.200000000000001E-003    3.750787279936056E-020
  1.300000000000001E-003   -1.787558133140020E-019
  1.400000000000001E-003   -4.223489740333379E-019
  1.500000000000001E-003   -6.823001079401331E-019
  1.600000000000001E-003   -9.446130035909782E-019
  1.700000000000001E-003   -1.192650379064332E-018
  1.800000000000001E-003   -1.407761370646327E-018
  1.900000000000001E-003   -1.570153059649279E-018
  2.000000000000001E-003   -1.659992318440421E-018
  2.100000000000001E-003   -1.658703178238006E-018
  2.200000000000001E-003   -1.550409051094299E-018
  2.300000000000001E-003   -1.323448758811883E-018
  2.400000000000001E-003   -9.718768025812107E-019
  2.500000000000001E-003   -4.968452859421069E-019
  2.600000000000001E-003    9.224503305823656E-020
  2.700000000000001E-003    7.769429535737923E-019
  2.800000000000001E-003    1.529407075728521E-018
  2.900000000000001E-003    2.312631169349170E-018
  3.000000000000001E-003    3.081313416088045E-018
  3.100000000000001E-003    3.783425958248204E-018
  3.200000000000001E-003    4.362491147281109E-018
  3.300000000000001E-003    4.760539212498401E-018
  3.400000000000001E-003    4.921653912368148E-018
  3.500000000000001E-003    4.795976058807105E-018
  3.600000000000001E-003    4.343966983599234E-018
  3.700000000000001E-003    3.540694149996265E-018
  3.800000000000001E-003    2.379853066699640E-018
  3.900000000000001E-003    8.772189304343949E-019
  4.000000000000001E-003   -9.267975381956985E-019
  4.100000000000001E-003   -2.965804106418803E-018
  4.200000000000001E-003   -5.147566120374925E-018
  4.300000000000001E-003   -7.355869382263547E-018
  4.400000000000001E-003   -9.454243730085528E-018
  4.500000000000001E-003   -1.129160476869180E-017
  4.600000000000002E-003   -1.270972334462669E-017
  4.700000000000001E-003   -1.355233971932536E-017
  4.800000000000001E-003   -1.367555215899433E-017
  4.900000000000002E-003   -1.295900408012404E-017
  5.000000000000001E-003   -1.131726422615373E-017
  5.100000000000001E-003   -8.710674792166117E-018
  5.200000000000001E-003   -5.154883436092375E-018
  5.300000000000002E-003   -7.282471264230789E-019
  5.400000000000001E-003    4.423708193344801E-018
  5.500000000000001E-003    1.008746526005181E-017
  5.600000000000002E-003    1.598496149825053E-017
  5.700000000000001E-003    2.178167841040204E-017
  5.800000000000001E-003    2.709952538275523E-017
  5.900000000000002E-003    3.153442144046713E-017
  6.000000000000001E-003    3.467808437619371E-017
  6.100000000000001E-003    3.614326013636017E-017
  6.200000000000002E-003    3.559125650501381E-017
  6.300000000000002E-003    3.276036626717272E-017
  6.400000000000001E-003    2.749346765319390E-017
  6.500000000000001E-003    1.976295324978311E-017
  6.600000000000002E-003    9.691009892413874E-018
  6.700000000000001E-003   -2.436690670118589E-018
  6.800000000000001E-003   -1.616567820606993E-017
  6.900000000000002E-003   -3.087728177905981E-017
  7.000000000000001E-003   -4.580416162306358E-017
  7.100000000000001E-003   -6.005736439057387E-017
  7.200000000000002E-003   -7.266479881924019E-017
  7.300000000000002E-003   -8.262021487598374E-017
  7.400000000000001E-003   -8.894109274371212E-017
  7.500000000000001E-003   -9.073303000482249E-017
  7.600000000000002E-003   -8.725738143877905E-017
  7.700000000000001E-003   -7.799846947231736E-017
  7.800000000000001E-003   -6.272597941244269E-017
  7.900000000000001E-003   -4.154803883675267E-017
  8.000000000000002E-003   -1.495036658154001E-017
  8.100000000000001E-003    1.618282556671855E-017
  8.200000000000001E-003    5.056989794986808E-017
  8.300000000000002E-003    8.655772543571072E-017
  8.400000000000001E-003    1.221741204749281E-016
  8.500000000000002E-003    1.552070121225040E-016
  8.600000000000002E-003    1.833090834678898E-016
  8.700000000000001E-003    2.041242250111562E-016
  8.800000000000002E-003    2.154314060478581E-016
  8.900000000000002E-003    2.152987545404407E-016
  9.000000000000001E-003    2.022396364267928E-016
  9.100000000000002E-003    1.753615133712875E-016
  9.200000000000002E-003    1.344970520569531E-016
  9.300000000000001E-003    8.030727108253801E-017
  9.400000000000002E-003    1.434660643172135E-017
  9.500000000000001E-003   -6.091882557713770E-017
  9.600000000000001E-003   -1.421469728215561E-016
  9.700000000000002E-003   -2.252139122404929E-016
  9.800000000000001E-003   -3.053677649549560E-016
  9.900000000000001E-003   -3.774405935917401E-016
  1.000000000000000E-002   -4.361115926847038E-016
  1.010000000000000E-002   -4.762121420960680E-016
  1.020000000000000E-002   -4.930585931849339E-016
  1.030000000000000E-002   -4.827957545425158E-016
  1.040000000000000E-002   -4.427309141307014E-016
  1.050000000000000E-002   -3.716368194793010E-016
  1.060000000000000E-002   -2.700010574332868E-016
  1.070000000000000E-002   -1.402003001943682E-016
  1.080000000000000E-002    1.342006614470819E-017
  1.090000000000000E-002    1.845772248450250E-016
  1.100000000000000E-002    3.652030746194790E-016
  1.110000000000000E-002    5.457231076935975E-016
  1.120000000000000E-002    7.154580626513525E-016
  1.130000000000000E-002    8.631383449702746E-016
  1.140000000000000E-002    9.775126135610427E-016
  1.150000000000000E-002    1.048023471647156E-015
  1.160000000000000E-002    1.065516898647806E-015
  1.170000000000000E-002    1.022945691298873E-015
  1.180000000000000E-002    9.160240844298874E-016
  1.190000000000000E-002    7.437883208978528E-016
  1.200000000000000E-002    5.090189356255120E-016
  1.210000000000000E-002    2.184853407683272E-016
  1.220000000000000E-002   -1.170225439145676E-016
  1.230000000000000E-002   -4.828975313338363E-016
  1.240000000000000E-002   -8.611687627314800E-016
  1.250000000000000E-002   -1.231202029168157E-015
  1.260000000000000E-002   -1.570632712712547E-015
  1.270000000000000E-002   -1.856497367787113E-015
  1.280000000000000E-002   -2.066519414821506E-015
  1.290000000000000E-002   -2.180486865176257E-015
  1.300000000000000E-002   -2.181649593070125E-015
  1.310000000000000E-002   -2.058056911088964E-015
  1.320000000000000E-002   -1.803748679300399E-015
  1.330000000000000E-002   -1.419715636398391E-015
  1.340000000000000E-002   -9.145510337351038E-016
  1.350000000000000E-002   -3.047217359380823E-016
  1.360000000000000E-002    3.855917093447151E-016
  1.370000000000000E-002    1.125120265262830E-015
  1.380000000000000E-002    1.876607891558563E-015
  1.390000000000000E-002    2.598365493100485E-015
  1.400000000000000E-002    3.246238502082760E-015
  1.410000000000000E-002    3.775908526135018E-015
  1.420000000000000E-002    4.145427654865775E-015
  1.430000000000000E-002    4.317862827890953E-015
  1.440000000000000E-002    4.263907787075860E-015
  1.450000000000000E-002    3.964304069742690E-015
  1.460000000000000E-002    3.411919423101132E-015
  1.470000000000000E-002    2.613324821357091E-015
  1.480000000000000E-002    1.589734971162929E-015
  1.490000000000000E-002    3.771989872344119E-016
  1.500000000000000E-002   -9.740461151482317E-016
  1.510000000000000E-002   -2.401091805335866E-015
  1.520000000000000E-002   -3.830747365207785E-015
  1.530000000000000E-002   -5.182739211144107E-015
  1.540000000000000E-002   -6.373616776308243E-015
  1.550000000000000E-002   -7.321203018388261E-015
  1.560000000000000E-002   -7.949387069915450E-015
  1.570000000000000E-002   -8.193010065109296E-015
  1.580000000000000E-002   -8.002582546816420E-015
  1.590000000000000E-002   -7.348535154461491E-015
  1.600000000000000E-002   -6.224725959152439E-015
  1.610000000000000E-002   -4.650930393798161E-015
  1.620000000000000E-002   -2.674080804711836E-015
  1.630000000000000E-002   -3.680681366826411E-016
  1.640000000000000E-002    2.168003538960232E-015
  1.650000000000000E-002    4.813160812189914E-015
  1.660000000000000E-002    7.429449369607363E-015
  1.670000000000000E-002    9.868215090089858E-015
  1.680000000000000E-002    1.197756251832569E-014
  1.690000000000000E-002    1.361064437981466E-014
  1.700000000000000E-002    1.463440135218480E-014
  1.710000000000000E-002    1.493828420221622E-014
  1.720000000000000E-002    1.444244731122147E-014
  1.730000000000000E-002    1.310492117390759E-014
  1.740000000000000E-002    1.092724559619469E-014
  1.750000000000000E-002    7.958128076662693E-015
  1.760000000000000E-002    4.294735884787506E-015
  1.770000000000000E-002    8.135006638533325E-017
  1.780000000000000E-002   -4.494755694025499E-015
  1.790000000000000E-002   -9.210210513579206E-015
  1.800000000000000E-002   -1.381508456844784E-014
  1.810000000000000E-002   -1.804468690663213E-014
  1.820000000000000E-002   -2.163321959199410E-014
  1.830000000000000E-002   -2.432857886088227E-014
  1.840000000000000E-002   -2.590762818834413E-014
  1.850000000000000E-002   -2.619107769316295E-014
  1.860000000000000E-002   -2.505710986483766E-014
  1.870000000000000E-002   -2.245287125624410E-014