 -4.000000000000000E-002    0.000000000000000E+000
 -3.990000000000000E-002    0.000000000000000E+000
 -3.980000000000000E-002    0.000000000000000E+000
 -3.970000000000000E-002    0.000000000000000E+000
 -3.960000000000000E-002    0.000000000000000E+000
 -3.950000000000000E-002    0.000000000000000E+000
 -3.940000000000000E-002    0.000000000000000E+000
 -3.930000000000000E-002    0.000000000000000E+000
 -3.920000000000000E-002    0.000000000000000E+000
 -3.910000000000000E-002    0.000000000000000E+000
 -3.900000000000000E-002    0.000000000000000E+000
 -3.890000000000000E-002    0.000000000000000E+000
 -3.880000000000000E-002    0.000000000000000E+000
 -3.870000000000000E-002    0.000000000000000E+000
 -3.860000000000000E-002   -9.274185021099367E-045
 -3.850000000000000E-002   -2.241525910114716E-043
 -3.840000000000000E-002   -2.744951532105442E-042
 -3.830000000000000E-002   -2.277073111352240E-041
 -3.820000000000000E-002   -1.429157682764265E-040
 -3.810000000000000E-002   -7.186059243682243E-040
 -3.800000000000000E-002   -2.982518456157686E-039
 -3.790000000000000E-002   -1.031738503164533E-038
 -3.780000000000000E-002   -2.927811736404222E-038
 -3.770000000000000E-002   -6.303857187434032E-038
 -3.760000000000000E-002   -6.663679267101802E-038
 -3.750000000000000E-002    2.357541261407290E-037
 -3.740000000000000E-002    1.949055966423288E-036
 -3.730000000000000E-002    8.704975252734178E-036
 -3.720000000000000E-002    3.097975421971349E-035
 -3.710000000000000E-002    9.610776014949540E-035
 -3.700000000000000E-002    2.696602314102709E-034
 -3.690000000000000E-002    6.976556662276229E-034
 -3.680000000000000E-002    1.683664693584974E-033
 -3.670000000000000E-002    3.818543124148379E-033
 -3.660000000000000E-002    8.179079689986812E-033
 -3.650000000000000E-002    1.659719323077018E-032
 -3.640000000000000E-002    3.196005948126333E-032
 -3.630000000000000E-002    5.841461231812970E-032
 -3.620000000000000E-002    1.011943047590073E-031
 -3.610000000000000E-002    1.655415211905504E-031
 -3.600000000000000E-002    2.538609683705165E-031
 -3.590000000000000E-002    3.598406427893427E-031
 -3.580000000000000E-002    4.579201102421399E-031
 -3.570000000000000E-002    4.863787107197145E-031
 -3.560000000000000E-002    3.228076890607799E-031
 -3.550000000000000E-002   -2.476728349088949E-031
 -3.540000000000000E-002   -1.567761296061929E-030
 -3.530000000000000E-002   -4.137475771539285E-030
 -3.520000000000000E-002   -8.619835308914121E-030
 -3.510000000000000E-002   -1.579343129146653E-029
 -3.500000000000000E-002   -2.640966470760617E-029
 -3.490000000000000E-002   -4.090054845793279E-029
 -3.480000000000000E-002   -5.887714381086164E-029
 -3.470000000000000E-002   -7.836614165158653E-029
 -3.460000000000000E-002   -9.476267775376517E-029
 -3.450000000000000E-002   -9.954192427342025E-029
 -3.440000000000000E-002   -7.888115503020820E-029
 -3.430000000000000E-002   -1.250268726461647E-029
 -3.420000000000000E-002    1.267455280214993E-028
 -3.410000000000000E-002    3.718207981177626E-028
 -3.400000000000000E-002    7.579542278971107E-028
 -3.390000000000000E-002    1.315536769854235E-027
 -3.380000000000000E-002    2.058325676377331E-027
 -3.370000000000000E-002    2.966180654243007E-027
 -3.360000000000000E-002    3.962252405784190E-027
 -3.350000000000000E-002    4.885774950636660E-027
 -3.340000000000000E-002    5.463415310936343E-027
 -3.330000000000000E-002    5.284482799791905E-027
 -3.320000000000000E-002    3.788024931732416E-027
 -3.310000000000000E-002    2.725848376683634E-028
 -3.300000000000000E-002   -6.058364024665488E-027
 -3.290000000000000E-002   -1.600133630365104E-026
 -3.280000000000000E-002   -3.019532813625310E-026
 -3.270000000000000E-002   -4.889346301014801E-026
 -3.260000000000000E-002   -7.166364562417340E-026
 -3.250000000000000E-002   -9.703092951006098E-026
 -3.240000000000000E-002   -1.220917003235039E-025
 -3.230000000000000E-002   -1.421507940979499E-025
 -3.220000000000000E-002   -1.504559665612363E-025
 -3.210000000000000E-002   -1.381263002836078E-025
 -3.200000000000000E-002   -9.438898418215152E-026
 -3.190000000000000E-002   -7.247289529303923E-027
 -3.180000000000000E-002    1.353035845539868E-025
 -3.170000000000000E-002    3.434212043413155E-025
 -3.160000000000000E-002    6.228788395427691E-025
 -3.150000000000000E-002    9.718789489338001E-025
 -3.140000000000000E-002    1.377352470116820E-024
 -3.130000000000000E-002    1.811004507226583E-024
 -3.120000000000000E-002    2.225514593578049E-024
 -3.110000000000000E-002    2.551455664114809E-024
 -3.100000000000000E-002    2.695653934644066E-024
 -3.090000000000000E-002    2.541852262691425E-024
 -3.080000000000000E-002    1.954647119232822E-024
 -3.070000000000000E-002    7.877185938731402E-025
 -3.060000000000000E-002   -1.102665378027867E-024
 -3.050000000000000E-002   -3.838052282614912E-024
 -3.040000000000000E-002   -7.491621459776109E-024
 -3.030000000000000E-002   -1.205546897591907E-023
 -3.020000000000000E-002   -1.740222458612025E-023
 -3.010000000000000E-002   -2.324299200328812E-023
 -3.000000000000000E-002   -2.908508355520444E-023
 -2.990000000000000E-002   -3.419480298689418E-023
 -2.980000000000000E-002   -3.757259855766272E-023
 -2.970000000000000E-002   -3.795000964344992E-023
 -2.960000000000000E-002   -3.381976590396170E-023
 -2.950000000000000E-002   -2.351162039880744E-023
 -2.940000000000000E-002   -5.326569080497176E-024
 -2.930000000000000E-002    2.225979126242508E-023
 -2.920000000000000E-002    6.031845273616256E-023
 -2.910000000000000E-002    1.091142398649412E-022
 -2.900000000000000E-002    1.676919357074651E-022
 -2.890000000000000E-002    2.334293605916447E-022
 -2.880000000000000E-002    3.016035227808298E-022
 -2.870000000000000E-002    3.650358988189783E-022
 -2.860000000000000E-002    4.139017387544147E-022
 -2.850000000000000E-002    4.358034332363404E-022
 -2.840000000000000E-002    4.162145879471542E-022
 -2.830000000000000E-002    3.393951637829465E-022
 -2.820000000000000E-002    1.898547901181175E-022
 -2.810000000000000E-002   -4.560345298396455E-023
 -2.800000000000000E-002   -3.752936663160033E-022
 -2.790000000000000E-002   -7.996357587745285E-022
 -2.780000000000000E-002   -1.307952081125932E-021
 -2.770000000000000E-002   -1.875415267486469E-021
 -2.760000000000000E-002   -2.460598232108591E-021
 -2.750000000000000E-002   -3.004162118484278E-021
 -2.740000000000000E-002   -3.429257992869400E-021
 -2.730000000000000E-002   -3.644195272737736E-021
 -2.720000000000000E-002   -3.547823312137914E-021
 -2.710000000000000E-002   -3.037875559007725E-021
 -2.700000000000000E-002   -2.022226389711255E-021
 -2.690000000000000E-002   -4.326356423239355E-022
 -2.680000000000000E-002    1.759884423503386E-021
 -2.670000000000000E-002    4.529401672344113E-021
 -2.660000000000000E-002    7.780827327993405E-021
 -2.650000000000000E-002    1.133915446028163E-020
 -2.640000000000000E-002    1.494435142274761E-020
 -2.630000000000000E-002    1.825398940120880E-020
 -2.620000000000000E-002    2.085530875270011E-020
 -2.610000000000000E-002    2.228775083421686E-020
 -2.600000000000000E-002    2.207604631120987E-020
 -2.590000000000000E-002    1.977276948384088E-020
 -2.580000000000000E-002    1.500803042850789E-020
 -2.570000000000000E-002    7.542700616992991E-021
 -2.560000000000000E-002   -2.679429253020097E-021
 -2.550000000000000E-002   -1.548590268196530E-020
 -2.540000000000000E-002   -3.044172978425745E-020
 -2.530000000000000E-002   -4.683248376159002E-020
 -2.520000000000000E-002   -6.366837147984356E-020
 -2.510000000000000E-002   -7.971167895763045E-020
 -2.500000000000000E-002   -9.352795076562496E-020
 -2.490000000000000E-002   -1.035589876926145E-019
 -2.480000000000000E-002   -1.082137054844122E-019
 -2.470000000000000E-002   -1.059711573115153E-019
 -2.460000000000000E-002   -9.548905369924259E-020
 -2.450000000000000E-002   -7.571111453370386E-020
 -2.440000000000000E-002   -4.596748580529285E-020
 -2.430000000000000E-002   -6.064214426710089E-021
 -2.420000000000000E-002    4.363975998331467E-020
 -2.410000000000000E-002    1.021674482372889E-019
 -2.400000000000000E-002    1.678678373336289E-019
 -2.390000000000000E-002    2.383661308500054E-019
 -2.380000000000000E-002    3.105182164142533E-019
 -2.370000000000000E-002    3.803711660792136E-019
 -2.360000000000000E-002    4.431369455539145E-019
 -2.350000000000000E-002    4.931936946771994E-019
 -2.340000000000000E-002    5.241375147118719E-019
 -2.330000000000000E-002    5.289142908983165E-019
 -2.320000000000000E-002    5.000660677906777E-019
 -2.310000000000000E-002    4.301265733980442E-019
 -2.300000000000000E-002    3.121936767942123E-019
 -2.290000000000000E-002    1.406924985445369E-019
 -2.280000000000000E-002   -8.767977049077373E-020
 -2.270000000000000E-002   -3.728664457938362E-019
 -2.260000000000000E-002   -7.102966416036840E-019
 -2.250000000000000E-002   -1.089774271901105E-018
 -2.240000000000000E-002   -1.494558747761147E-018
 -2.230000000000000E-002   -1.900807469266815E-018
 -2.220000000000000E-002   -2.277561873719839E-018
 -2.210000000000000E-002   -2.587447318837103E-018
 -2.200000000000000E-002   -2.788220892234261E-018
 -2.190000000000000E-002   -2.835239487082539E-018
 -2.180000000000000E-002   -2.684831845020252E-018
 -2.170000000000000E-002   -2.298452960307331E-018
 -2.160000000000000E-002   -1.647380983346186E-018
 -2.150000000000000E-002   -7.176023886696803E-019
 -2.140000000000000E-002    4.855678818451325E-019
 -2.130000000000000E-002    1.933648206904943E-018
 -2.120000000000000E-002    3.572472289640496E-018
 -2.110000000000000E-002    5.321487735251390E-018
 -2.100000000000000E-002    7.075265092479952E-018
 -2.090000000000000E-002    8.707454382334568E-018
 -2.080000000000000E-002    1.007719530424792E-017
 -2.070000000000000E-002    1.103775650019983E-017
 -2.060000000000000E-002    1.144690714347527E-017
 -2.050000000000000E-002    1.117829704112463E-017
 -2.040000000000000E-002    1.013293835706428E-017
 -2.030000000000000E-002    8.249779761378190E-018
 -2.020000000000000E-002    5.514371227288847E-018
 -2.010000000000000E-002    1.964745004440314E-018
 -2.000000000000000E-002   -2.306139233803079E-018
 -1.990000000000000E-002   -7.151689411829314E-018
 -1.980000000000000E-002   -1.237665141822706E-017
 -1.970000000000000E-002   -1.774527758190794E-017
 -1.960000000000000E-002   -2.299185635227058E-017
 -1.950000000000000E-002   -2.783251533290689E-017
 -1.940000000000000E-002   -3.197709760257560E-017
 -1.930000000000000E-002   -3.513998306849882E-017
 -1.920000000000000E-002   -3.704900176758345E-017
 -1.910000000000000E-002   -3.745203427045789E-017
 -1.900000000000000E-002   -3.612145944181393E-017
 -1.890000000000000E-002   -3.285727072814527E-017
 -1.880000000000000E-002   -2.749024188031753E-017
 -1.870000000000000E-002   -1.988697179356160E-017
 -1.860000000000000E-002   -9.958811014151969E-018
 -1.850000000000000E-002    2.323503769794049E-018
 -1.840000000000000E-002    1.690832397122112E-017
 -1.830000000000000E-002    3.363436590673340E-017
 -1.820000000000000E-002    5.219600217244858E-017
 -1.810000000000000E-002    7.210519100399296E-017
 -1.800000000000000E-002    9.265449837970015E-017
 -1.790000000000000E-002    1.128869785966741E-016
 -1.780000000000000E-002    1.315799221497485E-016
 -1.770000000000000E-002    1.472497306309659E-016
 -1.760000000000000E-002    1.581849045919865E-016
 -1.750000000000000E-002    1.625126038920286E-016
 -1.740000000000000E-002    1.583018999232659E-016
 -1.730000000000000E-002    1.437033804786621E-016
 -1.720000000000000E-002    1.171207352939349E-016
 -1.710000000000000E-002    7.740547546261607E-017
 -1.700000000000000E-002    2.406175268961375E-017
 -1.690000000000000E-002   -4.255596459188744E-017
 -1.680000000000000E-002   -1.210719081215460E-016
 -1.670000000000000E-002   -2.089655318289649E-016
 -1.660000000000000E-002   -3.025157019324392E-016
 -1.650000000000000E-002   -3.968299219543339E-016
 -1.640000000000000E-002   -4.859706720251412E-016
 -1.630000000000000E-002   -5.631844699739989E-016
 -1.620000000000000E-002   -6.212311933383511E-016
 -1.610000000000000E-002   -6.528022668423911E-016
 -1.600000000000000E-002   -6.510072490111879E-016
 -1.590000000000000E-002   -6.099014609953433E-016
 -1.580000000000000E-002   -5.250210895420446E-016
 -1.570000000000000E-002   -3.938880900015730E-016
 -1.560000000000000E-002   -2.164479875694564E-016
 -1.550000000000000E-002    4.595006611339984E-018
 -1.540000000000000E-002    2.635739454180666E-016
 -1.530000000000000E-002    5.518084506794749E-016
 -1.520000000000000E-002    8.577182675406693E-016
 -1.510000000000000E-002    1.167103383942519E-015
 -1.500000000000000E-002    1.463582219352643E-015
 -1.490000000000000E-002    1.729171677546828E-015
 -1.480000000000000E-002    1.944987140488242E-015
 -1.470000000000000E-002    2.092036558961117E-015
 -1.460000000000000E-002    2.152083777566606E-015
 -1.450000000000000E-002    2.108557689853196E-015
 -1.440000000000000E-002    1.947486059597697E-015
 -1.430000000000000E-002    1.658437805892368E-015
 -1.420000000000000E-002    1.235458691832063E-015
 -1.410000000000000E-002    6.779850744415943E-016
 -1.400000000000000E-002   -8.284337881920121E-018
 -1.390000000000000E-002   -8.105884866977047E-016
 -1.380000000000000E-002   -1.708419368132024E-015
 -1.370000000000000E-002   -2.673012154783662E-015
 -1.360000000000000E-002   -3.667089053969223E-015
 -1.350000000000000E-002   -4.644952412697354E-015
 -1.340000000000000E-002   -5.553035635414384E-015
 -1.330000000000000E-002   -6.331018972450804E-015
 -1.320000000000000E-002   -6.913618270719541E-015
 -1.310000000000000E-002   -7.233121286817892E-015
 -1.300000000000000E-002   -7.222706417414087E-015
 -1.290000000000000E-002   -6.820529264143755E-015
 -1.280000000000000E-002   -5.974479126645962E-015
 -1.270000000000000E-002   -4.647427296452475E-015
 -1.260000000000000E-002   -2.822706612550344E-015
 -1.250000000000000E-002   -5.094594756321400E-016
 -1.240000000000000E-002    2.252558348025678E-015
 -1.230000000000000E-002    5.389204863869700E-015
 -1.220000000000000E-002    8.789710983045812E-015
 -1.210000000000000E-002    1.230643827257392E-014
 -1.200000000000000E-002    1.575708236504234E-014
 -1.190000000000000E-002    1.892959813362850E-014
 -1.180000000000000E-002    2.159004805470277E-014
 -1.170000000000000E-002    2.349332044953917E-014
 -1.160000000000000E-002    2.439648604699101E-014
 -1.150000000000000E-002    2.407431192817660E-014
 -1.140000000000000E-002    2.233624721849372E-014
 -1.130000000000000E-002    1.904396370681954E-014
 -1.120000000000000E-002    1.412837664046873E-014
 -1.110000000000000E-002    7.604956593560974E-015
 -1.100000000000000E-002   -4.138772633502197E-016
 -1.090000000000000E-002   -9.710506590287126E-015
 -1.080000000000000E-002   -1.995905624725958E-014
 -1.070000000000000E-002   -3.072841060771353E-014
 -1.060000000000000E-002   -4.149190759101590E-014
 -1.050000000000000E-002   -5.164394041716708E-014
 -1.040000000000000E-002   -6.052339559791815E-014
 -1.030000000000000E-002   -6.744334573662809E-014
 -1.020000000000000E-002   -7.172608775092136E-014
 -1.010000000000000E-002   -7.274221615099403E-014
 -1.000000000000000E-002   -6.995200791727862E-014
 -9.899999999999999E-003   -6.294719940740832E-014
 -9.800000000000000E-003   -5.149102755549041E-014
 -9.699999999999999E-003   -3.555416598423663E-014
 -9.599999999999999E-003   -1.534430208858007E-014
 -9.500000000000000E-003    8.672883997511053E-015
 -9.399999999999999E-003    3.576340556097018E-014
 -9.299999999999999E-003    6.492714151929260E-014
 -9.200000000000000E-003    9.491390119918129E-014
 -9.099999999999999E-003    1.242542781350481E-013
 -8.999999999999999E-003    1.513057866010466E-013
 -8.900000000000000E-003    1.743139382419467E-013
 -8.799999999999999E-003    1.914874494748074E-013
 -8.699999999999999E-003    2.010856887197211E-013
 -8.600000000000000E-003    2.015158373705109E-013
 -8.499999999999999E-003    1.914365241509134E-013
 -8.399999999999999E-003    1.698633470732881E-013
 -8.300000000000000E-003    1.362717053471236E-013
 -8.199999999999999E-003    9.069074989698421E-014
 -8.100000000000000E-003    3.378266230459074E-014
 -8.000000000000000E-003   -3.309936421566726E-014
 -7.899999999999999E-003   -1.078810404026009E-013
 -7.800000000000000E-003   -1.877704441857165E-013
 -7.699999999999999E-003   -2.693005401713745E-013
 -7.599999999999999E-003   -3.484142924309793E-013
 -7.499999999999999E-003   -4.205946959956212E-013
 -7.399999999999999E-003   -4.810398475986497E-013
 -7.299999999999999E-003   -5.248794911993215E-013
 -7.199999999999999E-003   -5.474283340360849E-013
 -7.100000000000000E-003   -5.444667251902762E-013
 -6.999999999999999E-003   -5.125376642122471E-013
 -6.899999999999999E-003   -4.492449965877685E-013
 -6.800000000000000E-003   -3.535361955887524E-013
 -6.699999999999999E-003   -2.259516717857693E-013
 -6.599999999999999E-003   -6.882056829402675E-014
 -6.499999999999999E-003    1.136151049507355E-013
 -6.399999999999999E-003    3.151659133182042E-013
 -6.299999999999999E-003    5.277640448361833E-013
 -6.199999999999999E-003    7.416470422982906E-013
 -6.100000000000000E-003    9.456610377596834E-013
 -5.999999999999999E-003    1.127681709860304E-012
 -5.899999999999999E-003    1.275145920804600E-012
 -5.800000000000000E-003    1.375677223214943E-012
 -5.699999999999999E-003    1.417782773560508E-012
 -5.599999999999999E-003    1.391590877863539E-012
 -5.499999999999999E-003    1.289593888839052E-012
 -5.399999999999999E-003    1.107354417212595E-012
 -5.299999999999999E-003    8.441322764531343E-013
 -5.199999999999999E-003    5.033873171239715E-013
 -5.099999999999999E-003    9.311561820375536E-014
 -4.999999999999999E-003   -3.740184905057999E-013
 -4.899999999999999E-003   -8.807866118334316E-013
 -4.799999999999999E-003   -1.405757621898605E-012
 -4.699999999999999E-003   -1.923926718293496E-012
 -4.599999999999999E-003   -2.407607945689783E-012
 -4.499999999999999E-003   -2.827574925101635E-012
 -4.399999999999999E-003   -3.154413012354105E-012
 -4.299999999999999E-003   -3.360039145451373E-012
 -4.199999999999999E-003   -3.419323717902653E-012
 -4.099999999999999E-003   -3.311744979870823E-012
 -3.999999999999999E-003   -3.022988154979308E-012
 -3.899999999999999E-003   -2.546403364676426E-012
 -3.799999999999999E-003   -1.884229843341808E-012
 -3.699999999999999E-003   -1.048495379697560E-012
 -3.599999999999999E-003   -6.151268064410185E-014
 -3.499999999999999E-003    1.044101973477284E-012
 -3.399999999999999E-003    2.225939588663365E-012
 -3.299999999999999E-003    3.432868298012676E-012
 -3.199999999999999E-003    4.606670949573776E-012
 -3.099999999999999E-003    5.684229503080180E-012
 -2.999999999999999E-003    6.600203780703010E-012
 -2.899999999999999E-003    7.290119778930998E-012
 -2.799999999999999E-003    7.693756162939951E-012
 -2.699999999999999E-003    7.758687109874358E-012
 -2.599999999999999E-003    7.443819496196252E-012
 -2.499999999999999E-003    6.722735762544440E-012
 -2.399999999999999E-003    5.586656537745629E-012
 -2.299999999999999E-003    4.046826938866314E-012
 -2.199999999999999E-003    2.136133571046900E-012
 -2.099999999999999E-003   -9.020456439077591E-014
 -1.999999999999999E-003   -2.555017680096592E-012
 -1.899999999999999E-003   -5.160737881426402E-012
 -1.799999999999999E-003   -7.792153651499509E-012
 -1.699999999999999E-003   -1.032038823815275E-011
 -1.599999999999999E-003   -1.260799540777841E-011
 -1.499999999999999E-003   -1.451504408178183E-011
 -1.399999999999999E-003   -1.590598929935171E-011
 -1.299999999999999E-003   -1.665704350181031E-011
 -1.199999999999999E-003   -1.666372795013703E-011
 -1.099999999999999E-003   -1.584821732687109E-011
 -9.999999999999989E-004   -1.416609285911201E-011
 -8.999999999999990E-004   -1.161206810417989E-011
 -7.999999999999990E-004   -8.224290395408311E-012
 -6.999999999999989E-004   -4.086848044070409E-012
 -5.999999999999990E-004    6.698549007170943E-013
 -4.999999999999989E-004    5.871055282754032E-012
 -3.999999999999989E-004    1.130210488140877E-011
 -2.999999999999989E-004    1.671543462565028E-011
 -1.999999999999989E-004    2.183992711130456E-011
 -9.999999999999892E-005    2.639243117871000E-011
  1.084202172485504E-018    3.009101572399903E-011
  1.000000000000011E-004    3.266946580142912E-011
  2.000000000000011E-004    3.389235890822458E-011
  3.000000000000011E-004    3.356998389400519E-011
  4.000000000000011E-004    3.157232880302804E-011
  5.000000000000011E-004    2.784129038331142E-011
  6.000000000000011E-004    2.240033059455522E-011
  7.000000000000011E-004    1.536080940186054E-011
  8.000000000000011E-004    6.924396110376784E-012
  9.000000000000012E-004   -2.618962625478178E-012
  1.000000000000001E-003   -1.289775210375983E-011
  1.100000000000001E-003   -2.347039887031241E-011
  1.200000000000001E-003   -3.384135602379613E-011
  1.300000000000001E-003   -4.348136337435624E-011
  1.400000000000001E-003   -5.185116634399984E-011
  1.500000000000001E-003   -5.842778627701104E-011
  1.600000000000001E-003   -6.273219528632987E-011
  1.700000000000001E-003   -6.435709994785123E-011
  1.800000000000001E-003   -6.299344731496211E-011
  1.900000000000001E-003   -5.845414712038087E-011
  2.000000000000001E-003   -5.069362870486491E-011
  2.100000000000001E-003   -3.982189074410489E-011
  2.200000000000001E-003   -2.611188792660302E-011
  2.300000000000001E-003   -9.999372875767178E-012
  2.400000000000001E-003    7.925439086243039E-012
  2.500000000000001E-003    2.693453832741001E-011
  2.600000000000001E-003    4.618703417752100E-011
  2.700000000000001E-003    6.476160789526627E-011
  2.800000000000001E-003    8.169559609916629E-011
  2.900000000000001E-003    9.602921503147125E-011
  3.000000000000001E-003    1.068531236858776E-010
  3.100000000000001E-003    1.133572796002144E-010
  3.200000000000001E-003    1.148787680749226E-010
  3.300000000000001E-003    1.109461244853685E-010
  3.400000000000001E-003    1.013177721355489E-010
  3.500000000000001E-003    8.601216363321615E-011
  3.600000000000001E-003    6.532749711625304E-011
  3.700000000000001E-003    3.984928116377575E-011
  3.800000000000001E-003    1.044435917259680E-011
  3.900000000000001E-003   -2.175931642910392E-011
  4.000000000000001E-003   -5.540736260193385E-011
  4.100000000000001E-003   -8.896743047489536E-011
  4.200000000000001E-003   -1.207902528963209E-010
  4.300000000000001E-003   -1.491812176637269E-010
  4.400000000000001E-003   -1.724797768653312E-010
  4.500000000000001E-003   -1.891434681691975E-010
  4.600000000000002E-003   -1.978327036320567E-010
  4.700000000000001E-003   -1.974923134482663E-010
  4.800000000000001E-003   -1.874254481026653E-010
  4.900000000000002E-003   -1.673558566752753E-010
  5.000000000000001E-003   -1.374743095689473E-010
  5.100000000000001E-003   -9.846589518291179E-011
  5.200000000000001E-003   -5.151528369842091E-011
  5.300000000000002E-003    1.711794841296097E-012
  5.400000000000001E-003    5.911215808765555E-011
  5.500000000000001E-003    1.182130018970418E-010
  5.600000000000002E-003    1.762629738633691E-010
  5.700000000000001E-003    2.303433743569662E-010
  5.800000000000001E-003    2.774957793939007E-010
  5.900000000000002E-003    3.148610634889832E-010
  6.000000000000001E-003    3.398237123425772E-010
  6.100000000000001E-003    3.501552280544359E-010
  6.200000000000002E-003    3.441493572671392E-010
  6.300000000000002E-003    3.207424591879109E-010
  6.400000000000001E-003    2.796121346212546E-010
  6.500000000000001E-003    2.212481300134595E-010
  6.600000000000002E-003    1.469903938089123E-010
  6.700000000000001E-003    5.903044653141643E-011
  6.800000000000001E-003   -3.962641766415043E-011
  6.900000000000002E-003   -1.452384269867667E-010
  7.000000000000001E-003   -2.534435511827580E-010
  7.100000000000001E-003   -3.594113347049640E-010
  7.200000000000002E-003   -4.580257408851487E-010
  7.300000000000002E-003   -5.440928563425314E-010
  7.400000000000001E-003   -6.125655983175086E-010
  7.500000000000001E-003   -6.587767345924986E-010
  7.600000000000002E-003   -6.786706544684526E-010
  7.700000000000001E-003   -6.690240126531511E-010
  7.800000000000001E-003   -6.276452568138001E-010
  7.900000000000001E-003   -5.535435975828460E-010
  8.000000000000002E-003   -4.470590651910373E-010
  8.100000000000001E-003   -3.099459757746315E-010
  8.200000000000001E-003   -1.454042020876568E-010
  8.300000000000002E-003    4.194587375116583E-011
  8.400000000000001E-003    2.461463630509609E-010
  8.500000000000002E-003    4.600432216089017E-010
  8.600000000000002E-003    6.754831434373953E-010
  8.700000000000001E-003    8.835615100122586E-010
  8.800000000000002E-003    1.074914882740085E-009
  8.900000000000002E-003    1.240049652769044E-009
  9.000000000000001E-003    1.369696330494949E-009
  9.100000000000002E-003    1.455178893504421E-009
  9.200000000000002E-003    1.488785531241250E-009
  9.300000000000001E-003    1.464129212545321E-009
  9.400000000000002E-003    1.376484213234637E-009
  9.500000000000001E-003    1.223085769983695E-009
  9.600000000000001E-003    1.003381472202559E-009
  9.700000000000002E-003    7.192220683267648E-010
  9.800000000000001E-003    3.749846628594034E-010
  9.900000000000001E-003   -2.238185338160171E-011
  1.000000000000000E-002   -4.633926868113701E-010
  1.010000000000000E-002   -9.361480560268137E-010
  1.020000000000000E-002   -1.426539900239792E-009
  1.030000000000000E-002   -1.918541330165245E-009
  1.040000000000000E-002   -2.394575863691633E-009
  1.050000000000000E-002   -2.835958156832852E-009
  1.060000000000000E-002   -3.223397941652355E-009
  1.070000000000000E-002   -3.537556317629315E-009
  1.080000000000000E-002   -3.759641248338389E-009
  1.090000000000000E-002   -3.872029408556614E-009
  1.100000000000000E-002   -3.858897901214714E-009
  1.110000000000000E-002   -3.706852827233331E-009
  1.120000000000000E-002   -3.405538441466494E-009
  1.130000000000000E-002   -2.948210390658300E-009
  1.140000000000000E-002   -2.332258397213806E-009
  1.150000000000000E-002   -1.559666139204082E-009
  1.160000000000000E-002   -6.373902828918427E-010
  1.170000000000000E-002    4.223524607398855E-010
  1.180000000000000E-002    1.601902254673970E-009
  1.190000000000000E-002    2.878091195991496E-009
  1.200000000000000E-002    4.222305228987370E-009
  1.210000000000000E-002    5.600684643777103E-009
  1.220000000000000E-002    6.974472848875160E-009
  1.230000000000000E-002    8.300518936970154E-009
  1.240000000000000E-002    9.531942878487726E-009
  1.250000000000000E-002    1.061896533675237E-008
  1.260000000000000E-002    1.150990656651366E-008
  1.270000000000000E-002    1.215235281854245E-008
  1.280000000000000E-002    1.249448291562911E-008
  1.290000000000000E-002    1.248654843379796E-008
  1.300000000000000E-002    1.208249750433687E-008
  1.310000000000000E-002    1.124171685486610E-008
  1.320000000000000E-002    9.930874252973319E-009
  1.330000000000000E-002    8.125830093520850E-009
  1.340000000000000E-002    5.813583511077081E-009
  1.350000000000000E-002    2.994217622150892E-009
  1.360000000000000E-002   -3.172121258288303E-010
  1.370000000000000E-002   -4.088867897940420E-009
  1.380000000000000E-002   -8.270484219847955E-009
  1.390000000000000E-002   -1.279189869711450E-008
  1.400000000000000E-002   -1.756184282414585E-008
  1.410000000000000E-002   -2.246700661496254E-008
  1.420000000000000E-002   -2.737146588433047E-008
  1.430000000000000E-002   -3.211645207294497E-008
  1.440000000000000E-002   -3.652055192600039E-008
  1.450000000000000E-002   -4.038033180389742E-008
  1.460000000000000E-002   -4.347138657172083E-008
  1.470000000000000E-002   -4.554984789347285E-008
  1.480000000000000E-002   -4.635430602595586E-008
  1.490000000000000E-002   -4.560814047650156E-008
  1.500000000000000E-002   -4.302222178583585E-008
  1.510000000000000E-002   -3.829793436436209E-008
  1.520000000000000E-002   -3.113044612631927E-008
  1.530000000000000E-002   -2.121218974101651E-008
  1.540000000000000E-002   -8.236377358212617E-009
  1.550000000000000E-002    8.099344339909371E-009
  1.560000000000000E-002    2.808946971014469E-008
  1.570000000000000E-002    5.201724730837691E-008
  1.580000000000000E-002    8.015165415302998E-008
  1.590000000000000E-002    1.127447091770443E-007
  1.600000000000000E-002    1.500292625499482E-007
  1.610000000000000E-002    1.922172464983936E-007
  1.620000000000000E-002    2.394986332702553E-007
  1.630000000000000E-002    2.920410419704170E-007
  1.640000000000000E-002    3.499899960672546E-007
  1.650000000000000E-002    4.134699468458556E-007
  1.660000000000000E-002    4.825859608763324E-007
  1.670000000000000E-002    5.574263453967825E-007
  1.680000000000000E-002    6.380656926950409E-007
  1.690000000000000E-002    7.245686417779800E-007
  1.700000000000000E-002    8.169942730634052E-007
  1.710000000000000E-002    9.154009923749977E-007
  1.720000000000000E-002    1.019851610153475E-006
  1.730000000000000E-002    1.130418946999311E-006
  1.740000000000000E-002    1.247191559850339E-006
  1.750000000000000E-002    1.370279150209517E-006
  1.760000000000000E-002    1.499818704934207E-006
  1.770000000000000E-002    1.635979459381094E-006
  1.780000000000000E-002    1.778968407025519E-006
  1.790000000000000E-002    1.929035124728881E-006
  1.800000000000000E-002    2.086476282339369E-006
  1.810000000000000E-002    2.251639374194716E-006
  1.820000000000000E-002    2.424926487171466E-006
  1.830000000000000E-002    2.606797068873917E-006
  1.840000000000000E-002    2.797770538506637E-006
  1.850000000000000E-002    2.998427507526684E-006
  1.860000000000000E-002    3.209411527189375E-006
  1.870000000000000E-002    3.431430536679729E-006