 -4.000000000000000E-002    0.000000000000000E+000
 -3.990000000000000E-002    0.000000000000000E+000
 -3.980000000000000E-002    0.000000000000000E+000
 -3.970000000000000E-002    0.000000000000000E+000
 -3.960000000000000E-002    0.000000000000000E+000
 -3.950000000000000E-002    0.000000000000000E+000
 -3.940000000000000E-002    1.126878761255510E-024
 -3.930000000000000E-002    2.492682540546015E-023
 -3.920000000000000E-002    1.973963470585176E-022
 -3.910000000000000E-002    9.020828455918790E-022
 -3.900000000000000E-002    2.658454785119316E-021
 -3.890000000000000E-002    4.359692683505794E-021
 -3.880000000000000E-002   -3.539139043786915E-021
 -3.870000000000000E-002   -5.737419255128615E-020
 -3.860000000000000E-002   -2.600936763734328E-019
 -3.850000000000000E-002   -8.545244209872638E-019
 -3.840000000000000E-002   -2.339928252852184E-018
 -3.830000000000000E-002   -5.631842580419402E-018
 -3.820000000000000E-002   -1.224438127533509E-017
 -3.810000000000000E-002   -2.444084691458614E-017
 -3.800000000000000E-002   -4.525461561759187E-017
 -3.790000000000000E-002   -7.823485416391604E-017
 -3.780000000000000E-002   -1.267340255201136E-016
 -3.770000000000000E-002   -1.925445156699592E-016
 -3.760000000000000E-002   -2.737332220878939E-016
 -3.750000000000000E-002   -3.616348322174696E-016
 -3.740000000000000E-002   -4.371634013353147E-016
 -3.730000000000000E-002   -4.668832855264045E-016
 -3.720000000000000E-002   -3.996260474356433E-016
 -3.710000000000000E-002   -1.647997707137671E-016
 -3.700000000000000E-002    3.261676830646300E-016
 -3.690000000000000E-002    1.173669387329624E-015
 -3.680000000000000E-002    2.477589313311591E-015
 -3.670000000000000E-002    4.317839293954273E-015
 -3.660000000000000E-002    6.727714395640336E-015
 -3.650000000000000E-002    9.661361501112456E-015
 -3.640000000000000E-002    1.295834045006866E-014
 -3.630000000000000E-002    1.631009142552041E-014
 -3.620000000000000E-002    1.923483341713920E-014
 -3.610000000000000E-002    2.106863223691249E-014
 -3.600000000000000E-002    2.098066632890598E-014
 -3.590000000000000E-002    1.801972299872455E-014
 -3.580000000000000E-002    1.119644705259595E-014
 -3.570000000000000E-002   -3.984264479169697E-016
 -3.560000000000000E-002   -1.744517038060894E-014
 -3.550000000000000E-002   -4.022753565262767E-014
 -3.540000000000000E-002   -6.846519101346478E-014
 -3.530000000000000E-002   -1.011706390341686E-013
 -3.520000000000000E-002   -1.365582225827841E-013
 -3.510000000000000E-002   -1.720329216522693E-013
 -3.500000000000000E-002   -2.042815908916232E-013
 -3.490000000000000E-002   -2.294797092872147E-013
 -3.480000000000000E-002   -2.436115399896528E-013
 -3.470000000000000E-002   -2.428835486333699E-013
 -3.460000000000000E-002   -2.241902737777124E-013
 -3.450000000000000E-002   -1.855732512787193E-013
 -3.440000000000000E-002   -1.265996395341659E-013
 -3.430000000000000E-002   -4.858148369224753E-014
 -3.420000000000000E-002    4.543639179705371E-014
 -3.410000000000000E-002    1.509718842742499E-013
 -3.400000000000000E-002    2.627004081199057E-013
 -3.390000000000000E-002    3.753181566753744E-013
 -3.380000000000000E-002    4.845864213621046E-013
 -3.370000000000000E-002    5.884126829654714E-013
 -3.360000000000000E-002    6.877756065688403E-013
 -3.350000000000000E-002    7.872707865814781E-013
 -3.340000000000000E-002    8.950504883718877E-013
 -3.330000000000000E-002    1.021967432378540E-012
 -3.320000000000000E-002    1.179804114184814E-012
 -3.310000000000000E-002    1.378588033980083E-012
 -3.300000000000000E-002    1.623136377460422E-012
 -3.290000000000000E-002    1.909145031916489E-012
 -3.280000000000000E-002    2.219298555479315E-012
 -3.270000000000000E-002    2.520017351833592E-012
 -3.260000000000000E-002    2.759544970303818E-012
 -3.250000000000000E-002    2.868082168029572E-012
 -3.240000000000000E-002    2.760586197922524E-012
 -3.230000000000000E-002    2.342647012749511E-012
 -3.220000000000000E-002    1.519545131479907E-012
 -3.210000000000000E-002    2.082027230622355E-013
 -3.200000000000000E-002   -1.648726090256156E-012
 -3.190000000000000E-002   -4.067819920362843E-012
 -3.180000000000000E-002   -7.010528812001634E-012
 -3.170000000000000E-002   -1.037137734397684E-011
 -3.160000000000000E-002   -1.397075311370765E-011
 -3.150000000000000E-002   -1.755416448381594E-011
 -3.140000000000000E-002   -2.079949292133740E-011
 -3.130000000000000E-002   -2.333315608745852E-011
 -3.120000000000000E-002   -2.475519094371081E-011
 -3.110000000000000E-002   -2.467233133752570E-011
 -3.100000000000000E-002   -2.273703458462397E-011
 -3.090000000000000E-002   -1.868938960223263E-011
 -3.080000000000000E-002   -1.239805642542671E-011
 -3.070000000000000E-002   -3.895828707941041E-012
 -3.060000000000000E-002    6.594664060431276E-012
 -3.050000000000000E-002    1.864921420731834E-011
 -3.040000000000000E-002    3.164744295898622E-011
 -3.030000000000000E-002    4.479714849942841E-011
 -3.020000000000000E-002    5.717768933066082E-011
 -3.010000000000000E-002    6.780046699995419E-011
 -3.000000000000000E-002    7.568266476601824E-011
 -2.990000000000000E-002    7.992854470962681E-011
 -2.980000000000000E-002    7.981135401980989E-011
 -2.970000000000000E-002    7.484808158835482E-011
 -2.960000000000000E-002    6.485947323384571E-011
 -2.950000000000000E-002    5.000853061038690E-011
 -2.940000000000000E-002    3.081230677908976E-011
 -2.930000000000000E-002    8.124413326407526E-012
 -2.920000000000000E-002   -1.691183665772582E-011
 -2.910000000000000E-002   -4.293655974235754E-011
 -2.900000000000000E-002   -6.846688126802999E-011
 -2.890000000000000E-002   -9.200286745916261E-011
 -2.880000000000000E-002   -1.121361462135191E-010
 -2.870000000000000E-002   -1.276510881248239E-010
 -2.860000000000000E-002   -1.376090264040385E-010
 -2.850000000000000E-002   -1.414077415056583E-010
 -2.840000000000000E-002   -1.388110145340759E-010
 -2.830000000000000E-002   -1.299464144210708E-010
 -2.820000000000000E-002   -1.152730758978049E-010
 -2.810000000000000E-002   -9.552456799435678E-011
 -2.800000000000000E-002   -7.163479460193088E-011
 -2.790000000000000E-002   -4.465674283226513E-011
 -2.780000000000000E-002   -1.568428542198100E-011
 -2.770000000000000E-002    1.421334588997036E-011
 -2.760000000000000E-002    4.403717752249154E-011
 -2.750000000000000E-002    7.288005962921861E-011
 -2.740000000000000E-002    9.992413753648035E-011
 -2.730000000000000E-002    1.244181501393504E-010
 -2.720000000000000E-002    1.456423633314421E-010
 -2.710000000000000E-002    1.628716170908080E-010
 -2.700000000000000E-002    1.753483039371676E-010
 -2.690000000000000E-002    1.822766590850855E-010
 -2.680000000000000E-002    1.828474667822467E-010
 -2.670000000000000E-002    1.762981487289189E-010
 -2.660000000000000E-002    1.620079466581388E-010
 -2.650000000000000E-002    1.396216759782254E-010
 -2.640000000000000E-002    1.091895453183915E-010
 -2.630000000000000E-002    7.130525757736216E-011
 -2.620000000000000E-002    2.722122223398844E-011
 -2.610000000000000E-002   -2.108171711924423E-011
 -2.600000000000000E-002   -7.089077173244671E-011
 -2.590000000000000E-002   -1.188403933330898E-010
 -2.580000000000000E-002   -1.610829344200020E-010
 -2.570000000000000E-002   -1.935504810465347E-010
 -2.560000000000000E-002   -2.122966182702452E-010
 -2.550000000000000E-002   -2.138959377817025E-010
 -2.540000000000000E-002   -1.958690742280943E-010
 -2.530000000000000E-002   -1.570934220106118E-010
 -2.520000000000000E-002   -9.815533335295105E-011
 -2.510000000000000E-002   -2.159963404061940E-011
 -2.500000000000000E-002    6.796413896949279E-011
 -2.490000000000000E-002    1.639292697827066E-010
 -2.480000000000000E-002    2.579517513149493E-010
 -2.470000000000000E-002    3.404045191085957E-010
 -2.460000000000000E-002    4.010104785166935E-010
 -2.450000000000000E-002    4.296207746160870E-010
 -2.440000000000000E-002    4.170886382066901E-010
 -2.430000000000000E-002    3.561756149305222E-010
 -2.420000000000000E-002    2.424192258071697E-010
 -2.410000000000000E-002    7.488703911726402E-011
 -2.400000000000000E-002   -1.432527093394991E-010
 -2.390000000000000E-002   -4.044067655379081E-010
 -2.380000000000000E-002   -6.965240489020257E-010
 -2.370000000000000E-002   -1.003382474208072E-009
 -2.360000000000000E-002   -1.305199225115411E-009
 -2.350000000000000E-002   -1.579546004013805E-009
 -2.340000000000000E-002   -1.802527816984116E-009
 -2.330000000000000E-002   -1.950163423045783E-009
 -2.320000000000000E-002   -1.999889941369267E-009
 -2.310000000000000E-002   -1.932103935942129E-009
 -2.300000000000000E-002   -1.731646892900765E-009
 -2.290000000000000E-002   -1.389143904915522E-009
 -2.280000000000000E-002   -9.021135856044253E-010
 -2.270000000000000E-002   -2.757794567109647E-010
 -2.260000000000000E-002    4.764709762439642E-010
 -2.250000000000000E-002    1.333014715661195E-009
 -2.240000000000000E-002    2.264323774477919E-009
 -2.230000000000000E-002    3.233695261377190E-009
 -2.220000000000000E-002    4.198361273597875E-009
 -2.210000000000000E-002    5.110943872971835E-009
 -2.200000000000000E-002    5.921211702061878E-009
 -2.190000000000000E-002    6.578082019848293E-009
 -2.180000000000000E-002    7.031814362083584E-009
 -2.170000000000000E-002    7.236328890211892E-009
 -2.160000000000000E-002    7.151585202455981E-009
 -2.150000000000000E-002    6.745954280682035E-009
 -2.140000000000000E-002    5.998507649720252E-009
 -2.130000000000000E-002    4.901147799466676E-009
 -2.120000000000000E-002    3.460492516410317E-009
 -2.110000000000000E-002    1.699420371798605E-009
 -2.100000000000000E-002   -3.418173496495167E-010
 -2.090000000000000E-002   -2.605027504731912E-009
 -2.080000000000000E-002   -5.014150117808398E-009
 -2.070000000000000E-002   -7.476078905341657E-009
 -2.060000000000000E-002   -9.882312381296547E-009
 -2.050000000000000E-002   -1.211150700770485E-008
 -2.040000000000000E-002   -1.403296905568322E-008
 -2.030000000000000E-002   -1.551108157781357E-008
 -2.020000000000000E-002   -1.641062789280620E-008
 -2.010000000000000E-002   -1.660291624911164E-008
 -2.000000000000000E-002   -1.597254867905662E-008
 -1.990000000000000E-002   -1.442465382183823E-008
 -1.980000000000000E-002   -1.189232628535067E-008
 -1.970000000000000E-002   -8.344006291489601E-009
 -1.960000000000000E-002   -3.790503461620781E-009
 -1.950000000000000E-002    1.708644602102001E-009
 -1.940000000000000E-002    8.039760528652138E-009
 -1.930000000000000E-002    1.503081757273193E-008
 -1.920000000000000E-002    2.244865782774364E-008
 -1.910000000000000E-002    2.999776794275724E-008
 -1.900000000000000E-002    3.732071505259629E-008
 -1.890000000000000E-002    4.400024011980066E-008
 -1.880000000000000E-002    4.956293582494036E-008
 -1.870000000000000E-002    5.348440986359593E-008
 -1.860000000000000E-002    5.519571075272176E-008
 -1.850000000000000E-002    5.409082699420032E-008
 -1.840000000000000E-002    4.953497858575916E-008
 -1.830000000000000E-002    4.087348205517814E-008
 -1.820000000000000E-002    2.744090787226186E-008
 -1.810000000000000E-002    8.570327262061178E-009
 -1.800000000000000E-002   -1.639755364431855E-008
 -1.790000000000000E-002   -4.810558590468643E-008
 -1.780000000000000E-002   -8.717178159512272E-008
 -1.770000000000000E-002   -1.341814739169896E-007
 -1.760000000000000E-002   -1.896802752317510E-007
 -1.750000000000000E-002   -2.541676959957250E-007
 -1.740000000000000E-002   -3.280919141567927E-007
 -1.730000000000000E-002   -4.118455978493071E-007
 -1.720000000000000E-002   -5.057630751148478E-007
 -1.710000000000000E-002   -6.101191246967962E-007
 -1.700000000000000E-002   -7.251295629434392E-007
 -1.690000000000000E-002   -8.509538545473934E-007
 -1.680000000000000E-002   -9.876999202729028E-007
 -1.670000000000000E-002   -1.135431674405911E-006
 -1.660000000000000E-002   -1.294178338221141E-006
 -1.650000000000000E-002   -1.463947257537729E-006
 -1.640000000000000E-002   -1.644737737512497E-006
 -1.630000000000000E-002   -1.836557744515401E-006
 -1.620000000000000E-002   -2.039442089685592E-006
 -1.610000000000000E-002   -2.253470645888725E-006
 -1.600000000000000E-002   -2.478787932609114E-006
 -1.590000000000000E-002   -2.715621753968998E-006
 -1.580000000000000E-002   -2.964300017504018E-006
 -1.570000000000000E-002   -3.225266254116547E-006
 -1.560000000000000E-002   -3.499092087863082E-006
 -1.550000000000000E-002   -3.786486418898227E-006
 -1.540000000000000E-002   -4.088301538159503E-006
 -1.530000000000000E-002   -4.405534138229123E-006
 -1.520000000000000E-002   -4.739324200014767E-006
 -1.510000000000000E-002   -5.090950145596759E-006
 -1.500000000000000E-002   -5.461820200307677E-006
 -1.490000000000000E-002   -5.853463390050163E-006
 -1.480000000000000E-002   -6.267517404163357E-006
 -1.470000000000000E-002   -6.705717277158971E-006
 -1.460000000000000E-002   -7.169883066633986E-006
 -1.450000000000000E-002   -7.661911335972056E-006
 -1.440000000000000E-002   -8.183764163563329E-006
 -1.430000000000000E-002   -8.737465409235256E-006
 -1.420000000000000E-002   -9.325096266157848E-006
 -1.410000000000000E-002   -9.948794535419101E-006
 -1.400000000000000E-002   -1.061075564054109E-005
 -1.390000000000000E-002   -1.131323778918263E-005
 -1.380000000000000E-002   -1.205856620154356E-005
 -1.370000000000000E-002   -1.284914115113161E-005
 -1.360000000000000E-002   -1.368744609252257E-005
 -1.350000000000000E-002   -1.457605592985457E-005
 -1.340000000000000E-002   -1.551764130435263E-005
 -1.330000000000000E-002   -1.651498223060459E-005
 -1.320000000000000E-002   -1.757096811260848E-005
 -1.310000000000000E-002   -1.868860959925568E-005
 -1.300000000000000E-002   -1.987104396222469E-005
 -1.290000000000000E-002   -2.112153794052313E-005
 -1.280000000000000E-002   -2.244349839987221E-005
 -1.270000000000000E-002   -2.384048106885604E-005
 -1.260000000000000E-002   -2.531619992729474E-005
 -1.250000000000000E-002   -2.687453633632288E-005
 -1.240000000000000E-002   -2.851955820412541E-005
 -1.230000000000000E-002   -3.025553746883246E-005
 -1.220000000000000E-002   -3.208696591705116E-005
 -1.210000000000000E-002   -3.401858221796610E-005
 -1.200000000000000E-002   -3.605539460663717E-005
 -1.190000000000000E-002   -3.820269711827899E-005
 -1.180000000000000E-002   -4.046611086827048E-005
 -1.170000000000000E-002   -4.285158582135171E-005
 -1.160000000000000E-002   -4.536544596477922E-005
 -1.150000000000000E-002   -4.801438865781592E-005
 -1.140000000000000E-002   -5.080550966739908E-005
 -1.130000000000000E-002   -5.374631243046120E-005
 -1.120000000000000E-002   -5.684471256731680E-005
 -1.110000000000000E-002   -6.010904009574655E-005
 -1.100000000000000E-002   -6.354804023237801E-005
 -1.090000000000000E-002   -6.717085951816290E-005
 -1.080000000000000E-002   -7.098704366081928E-005
 -1.070000000000000E-002   -7.500651758089685E-005
 -1.060000000000000E-002   -7.923958886293857E-005
 -1.050000000000000E-002   -8.369693803848985E-005
 -1.040000000000000E-002   -8.838959327484274E-005
 -1.030000000000000E-002   -9.332893406373937E-005
 -1.020000000000000E-002   -9.852670337162957E-005
 -1.010000000000000E-002   -1.039950142531659E-004
 -1.000000000000000E-002   -1.097463465656970E-004
 -9.899999999999999E-003   -1.157936005483548E-004
 -9.800000000000000E-003   -1.221500828622972E-004
 -9.699999999999999E-003   -1.288295837123522E-004
 -9.599999999999999E-003   -1.358463759096360E-004
 -9.500000000000000E-003   -1.432153049430324E-004
 -9.399999999999999E-003   -1.509517940672571E-004
 -9.299999999999999E-003   -1.590719237702807E-004
 -9.200000000000000E-003   -1.675924569007897E-004
 -9.099999999999999E-003   -1.765309037085697E-004
 -8.999999999999999E-003   -1.859055467432650E-004
 -8.900000000000000E-003   -1.957355248745624E-004
 -8.799999999999999E-003   -2.060407996260405E-004
 -8.699999999999999E-003   -2.168422727783702E-004
 -8.600000000000000E-003   -2.281617381453284E-004
 -8.499999999999999E-003   -2.400219292634584E-004
 -8.399999999999999E-003   -2.524465390394616E-004
 -8.300000000000000E-003   -2.654602448785902E-004
 -8.199999999999999E-003   -2.790886777037293E-004
 -8.100000000000000E-003   -2.933584916048136E-004
 -8.000000000000000E-003   -3.082972957778986E-004
 -7.899999999999999E-003   -3.239337095919076E-004
 -7.800000000000000E-003   -3.402973542145481E-004
 -7.699999999999999E-003   -3.574188588331593E-004
 -7.599999999999999E-003   -3.753299118544326E-004
 -7.499999999999999E-003   -3.940632251203269E-004
 -7.399999999999999E-003   -4.136525464908193E-004
 -7.299999999999999E-003   -4.341327122986218E-004
 -7.199999999999999E-003   -4.555396589007442E-004
 -7.100000000000000E-003   -4.779104417235394E-004
 -6.999999999999999E-003   -5.012832853633286E-004
 -6.899999999999999E-003   -5.256975744551844E-004
 -6.800000000000000E-003   -5.511940013667381E-004
 -6.699999999999999E-003   -5.778143964825634E-004
 -6.599999999999999E-003   -6.056019880990669E-004
 -6.499999999999999E-003   -6.346012485379630E-004
 -6.399999999999999E-003   -6.648580365985314E-004
 -6.299999999999999E-003   -6.964196760180590E-004
 -6.199999999999999E-003   -7.293348408536658E-004
 -6.100000000000000E-003   -7.636536974737275E-004
 -5.999999999999999E-003   -7.994280061884077E-004
 -5.899999999999999E-003   -8.367109741045820E-004
 -5.800000000000000E-003   -8.755573773742515E-004
 -5.699999999999999E-003   -9.160237126589975E-004
 -5.599999999999999E-003   -9.581680260192386E-004
 -5.499999999999999E-003   -1.002050083082470E-003
 -5.399999999999999E-003   -1.047731378633153E-003
 -5.299999999999999E-003   -1.095275027826946E-003
 -5.199999999999999E-003   -1.144746058530900E-003
 -5.099999999999999E-003   -1.196211196090277E-003
 -4.999999999999999E-003   -1.249738929613767E-003
 -4.899999999999999E-003   -1.305399649528955E-003
 -4.799999999999999E-003   -1.363265450162512E-003
 -4.699999999999999E-003   -1.423410390504343E-003
 -4.599999999999999E-003   -1.485910309910921E-003
 -4.499999999999999E-003   -1.550842901963956E-003
 -4.399999999999999E-003   -1.618287680881816E-003
 -4.299999999999999E-003   -1.688326144592198E-003
 -4.199999999999999E-003   -1.761041642172161E-003
 -4.099999999999999E-003   -1.836519392445813E-003
 -3.999999999999999E-003   -1.914846489363375E-003
 -3.899999999999999E-003   -1.996111979577314E-003
 -3.799999999999999E-003   -2.080406683162314E-003
 -3.699999999999999E-003   -2.167823483655686E-003
 -3.599999999999999E-003   -2.258456772426788E-003
 -3.499999999999999E-003   -2.352403315573168E-003
 -3.399999999999999E-003   -2.449761204314837E-003
 -3.299999999999999E-003   -2.550630876095944E-003
 -3.199999999999999E-003   -2.655114163318805E-003
 -3.099999999999999E-003   -2.763314991452238E-003
 -2.999999999999999E-003   -2.875338943113571E-003
 -2.899999999999999E-003   -2.991293525456209E-003
 -2.799999999999999E-003   -3.111287946246945E-003
 -2.699999999999999E-003   -3.235432997880342E-003
 -2.599999999999999E-003   -3.363841661424538E-003
 -2.499999999999999E-003   -3.496628011020282E-003
 -2.399999999999999E-003   -3.633907986724383E-003
 -2.299999999999999E-003   -3.775799261930483E-003
 -2.199999999999999E-003   -3.922421076163088E-003
 -2.099999999999999E-003   -4.073894356109541E-003
 -1.999999999999999E-003   -4.230341225375910E-003
 -1.899999999999999E-003   -4.391885439638168E-003
 -1.799999999999999E-003   -4.558652068878258E-003
 -1.699999999999999E-003   -4.730767701518635E-003
 -1.599999999999999E-003   -4.908360121302014E-003
 -1.499999999999999E-003   -5.091557714563606E-003
 -1.399999999999999E-003   -5.280490629923486E-003
 -1.299999999999999E-003   -5.475289724458979E-003
 -1.199999999999999E-003   -5.676086834402427E-003
 -1.099999999999999E-003   -5.883014299192000E-003
 -9.999999999999989E-004   -6.096205092854316E-003
 -8.999999999999990E-004   -6.315793285025527E-003
 -7.999999999999990E-004   -6.541912797564196E-003
 -6.999999999999989E-004   -6.774698275262929E-003
 -5.999999999999990E-004   -7.014283596296011E-003
 -4.999999999999989E-004   -7.260804119827786E-003
 -3.999999999999989E-004   -7.514394202350033E-003
 -2.999999999999989E-004   -7.775188395015654E-003
 -1.999999999999989E-004   -8.043320033939715E-003
 -9.999999999999892E-005   -8.318923314662083E-003
  1.084202172485504E-018   -8.602130818168442E-003
  1.000000000000011E-004   -8.893075314236915E-003
  2.000000000000011E-004   -9.191887094991196E-003
  3.000000000000011E-004   -9.498695961311717E-003
  4.000000000000011E-004   -9.813630219674569E-003
  5.000000000000011E-004   -1.013681724127893E-002
  6.000000000000011E-004   -1.046838189666245E-002
  7.000000000000011E-004   -1.080844751431279E-002
  8.000000000000011E-004   -1.115713493944046E-002
  9.000000000000012E-004   -1.151456273431918E-002
  1.000000000000001E-003   -1.188084646732689E-002
  1.100000000000001E-003   -1.225609989215334E-002
  1.200000000000001E-003   -1.264043224777302E-002
  1.300000000000001E-003   -1.303395153675386E-002
  1.400000000000001E-003   -1.343676000950167E-002
  1.500000000000001E-003   -1.384895781884804E-002
  1.600000000000001E-003   -1.427063973250359E-002
  1.700000000000001E-003   -1.470189842871559E-002
  1.800000000000001E-003   -1.514281964764821E-002
  1.900000000000001E-003   -1.559348629457952E-002
  2.000000000000001E-003   -1.605397455230623E-002
  2.100000000000001E-003   -1.652435596129059E-002
  2.200000000000001E-003   -1.700469664938327E-002
  2.300000000000001E-003   -1.749505611390941E-002
  2.400000000000001E-003   -1.799548861392213E-002
  2.500000000000001E-003   -1.850604019654881E-002
  2.600000000000001E-003   -1.902675006426845E-002
  2.700000000000001E-003   -1.955765137134620E-002
  2.800000000000001E-003   -2.009876939801251E-002
  2.900000000000001E-003   -2.065012049385416E-002
  3.000000000000001E-003   -2.121171196425888E-002
  3.100000000000001E-003   -2.178354548399228E-002
  3.200000000000001E-003   -2.236561181407358E-002
  3.300000000000001E-003   -2.295789300247744E-002
  3.400000000000001E-003   -2.356036092777114E-002
  3.500000000000001E-003   -2.417297623743904E-002
  3.600000000000001E-003   -2.479569358610446E-002
  3.700000000000001E-003   -2.542845352708863E-002
  3.800000000000001E-003   -2.607118865770763E-002
  3.900000000000001E-003   -2.672381723582226E-002
  4.000000000000001E-003   -2.738625112637405E-002
  4.100000000000001E-003   -2.805838498422436E-002
  4.200000000000001E-003   -2.874010363418680E-002
  4.300000000000001E-003   -2.943128181923300E-002
  4.400000000000001E-003   -3.013177885593646E-002
  4.500000000000001E-003   -3.084144227043303E-002
  4.600000000000002E-003   -3.156010779287624E-002
  4.700000000000001E-003   -3.228759319756910E-002
  4.800000000000001E-003   -3.302370712846057E-002
  4.900000000000002E-003   -3.376824095990474E-002
  5.000000000000001E-003   -3.452097540265897E-002
  5.100000000000001E-003   -3.528167117623042E-002
  5.200000000000001E-003   -3.605007553137606E-002
  5.300000000000002E-003   -3.682592165081190E-002
  5.400000000000001E-003   -3.760892654496976E-002
  5.500000000000001E-003   -3.839878805006122E-002
  5.600000000000002E-003   -3.919519651254227E-002
  5.700000000000001E-003   -3.999781628184283E-002
  5.800000000000001E-003   -4.080630007877165E-002
  5.900000000000002E-003   -4.162028422384177E-002
  6.000000000000001E-003   -4.243938423401304E-002
  6.100000000000001E-003   -4.326320241097392E-002
  6.200000000000002E-003   -4.409132351218926E-002
  6.300000000000002E-003   -4.492331156933824E-002
  6.400000000000001E-003   -4.575871465771313E-002
  6.500000000000001E-003   -4.659706720513941E-002
  6.600000000000002E-003   -4.743788018972893E-002
  6.700000000000001E-003   -4.828065137724465E-002
  6.800000000000001E-003   -4.912485778462798E-002
  6.900000000000002E-003   -4.996995787239482E-002
  7.000000000000001E-003   -5.081539475437406E-002
  7.100000000000001E-003   -5.166059416565668E-002
  7.200000000000002E-003   -5.250496208642997E-002
  7.300000000000002E-003   -5.334788808849832E-002
  7.400000000000001E-003   -5.418873976490804E-002
  7.500000000000001E-003   -5.502687208943863E-002
  7.600000000000002E-003   -5.586162070642942E-002
  7.700000000000001E-003   -5.669230277614211E-002
  7.800000000000001E-003   -5.751821899110238E-002
  7.900000000000001E-003   -5.833865533744145E-002
  8.000000000000002E-003   -5.915287179845643E-002
  8.100000000000001E-003   -5.996012204483245E-002
  8.200000000000001E-003   -6.075963852577757E-002
  8.300000000000002E-003   -6.155063624537654E-002
  8.400000000000001E-003   -6.233231785302633E-002
  8.500000000000002E-003   -6.310386626566604E-002
  8.600000000000002E-003   -6.386445152547274E-002
  8.700000000000001E-003   -6.461323069996854E-002
  8.800000000000002E-003   -6.534933985762210E-002
  8.900000000000002E-003   -6.607190545617911E-002
  9.000000000000001E-003   -6.678004070406544E-002
  9.100000000000002E-003   -6.747284323353636E-002
  9.200000000000002E-003   -6.814940133979101E-002
  9.300000000000001E-003   -6.880878530232305E-002
  9.400000000000002E-003   -6.945005624269651E-002
  9.500000000000001E-003   -7.007226407427285E-002
  9.600000000000001E-003   -7.067445453047319E-002
  9.700000000000002E-003   -7.125565659643637E-002
  9.800000000000001E-003   -7.181489676763428E-002
  9.900000000000001E-003   -7.235118513870786E-002
  1.000000000000000E-002   -7.286352790350517E-002
  1.010000000000000E-002   -7.335092405653190E-002
  1.020000000000000E-002   -7.381236928804211E-002
  1.030000000000000E-002   -7.424684870566638E-002
  1.040000000000000E-002   -7.465335272457090E-002
  1.050000000000000E-002   -7.503085609858967E-002
  1.060000000000000E-002   -7.537833833216194E-002
  1.070000000000000E-002   -7.569477810982726E-002
  1.080000000000000E-002   -7.597914500737485E-002
  1.090000000000000E-002   -7.623042559674974E-002
  1.100000000000000E-002   -7.644758651509530E-002
  1.110000000000000E-002   -7.662961198159240E-002
  1.120000000000000E-002   -7.677547679889560E-002
  1.130000000000000E-002   -7.688417306258595E-002
  1.140000000000000E-002   -7.695468568130401E-002
  1.150000000000000E-002   -7.698601470932241E-002
  1.160000000000000E-002   -7.697716189151728E-002
  1.170000000000000E-002   -7.692713621614106E-002
  1.180000000000000E-002   -7.683496632507672E-002
  1.190000000000000E-002   -7.669967137763734E-002
  1.200000000000000E-002   -7.652030668075924E-002
  1.210000000000000E-002   -7.629591866732668E-002
  1.220000000000000E-002   -7.602558510047605E-002
  1.230000000000000E-002   -7.570837841511210E-002
  1.240000000000000E-002   -7.534340918797838E-002
  1.250000000000000E-002   -7.492979958950705E-002
  1.260000000000000E-002   -7.446668106529424E-002
  1.270000000000000E-002   -7.395321430765228E-002
  1.280000000000000E-002   -7.338857112147190E-002
  1.290000000000000E-002   -7.277196096633901E-002
  1.300000000000000E-002   -7.210260644143718E-002
  1.310000000000000E-002   -7.137975065677195E-002
  1.320000000000000E-002   -7.060266975718651E-002
  1.330000000000000E-002   -6.977067107500086E-002
  1.340000000000000E-002   -6.888308266999557E-002
  1.350000000000000E-002   -6.793925569730311E-002
  1.360000000000000E-002   -6.693858491984332E-002
  1.370000000000000E-002   -6.588048582410075E-002
  1.380000000000000E-002   -6.476441697494528E-002
  1.390000000000000E-002   -6.358986459636429E-002
  1.400000000000000E-002   -6.235634665582936E-002
  1.410000000000000E-002   -6.106342108280310E-002
  1.420000000000000E-002   -5.971067858297094E-002
  1.430000000000000E-002   -5.829775464554923E-002
  1.440000000000000E-002   -5.682431729601799E-002
  1.450000000000000E-002   -5.529007554432771E-002
  1.460000000000000E-002   -5.369478138631143E-002
  1.470000000000000E-002   -5.203822549213914E-002
  1.480000000000000E-002   -5.032024281373715E-002
  1.490000000000000E-002   -4.854071011596213E-002
  1.500000000000000E-002   -4.669954807521816E-002
  1.510000000000000E-002   -4.479672634029647E-002
  1.520000000000000E-002   -4.283225363208918E-002
  1.530000000000000E-002   -4.080619151582148E-002
  1.540000000000000E-002   -3.871864063993178E-002
  1.550000000000000E-002   -3.656975524774783E-002
  1.560000000000000E-002   -3.435973711064667E-002
  1.570000000000000E-002   -3.208883447877052E-002
  1.580000000000000E-002   -2.975734631026498E-002
  1.590000000000000E-002   -2.736562010627491E-002
  1.600000000000000E-002   -2.491405499240201E-002
  1.610000000000000E-002   -2.240310121582800E-002
  1.620000000000000E-002   -1.983325553041527E-002
  1.630000000000000E-002   -1.720507014421574E-002
  1.640000000000000E-002   -1.451914632272535E-002
  1.650000000000000E-002   -1.177613606299353E-002
  1.660000000000000E-002   -8.976744242415680E-003
  1.670000000000000E-002   -6.121726968029992E-003
  1.680000000000000E-002   -3.211890238171539E-003
  1.690000000000000E-002   -2.480936240980393E-004
  1.700000000000000E-002    2.768755252278028E-003
  1.710000000000000E-002    5.837694461741568E-003
  1.720000000000000E-002    8.957713516026972E-003
  1.730000000000000E-002    1.212775110349554E-002
  1.740000000000000E-002    1.534669614014433E-002
  1.750000000000000E-002    1.861338690725520E-002
  1.760000000000000E-002    2.192661156141686E-002
  1.770000000000000E-002    2.528511130889429E-002
  1.780000000000000E-002    2.868757943841115E-002
  1.790000000000000E-002    3.213265838544972E-002
  1.800000000000000E-002    3.561894718185937E-002
  1.810000000000000E-002    3.914499696613186E-002
  1.820000000000000E-002    4.270931183995095E-002
  1.830000000000000E-002    4.631034975827286E-002
  1.840000000000000E-002    4.994652789248921E-002
  1.850000000000000E-002    5.361622373389412E-002
  1.860000000000000E-002    5.731776391183371E-002
  1.870000000000000E-002    6.104944377316789E-002