 -4.000000000000000E-002    0.000000000000000E+000
 -3.990000000000000E-002    0.000000000000000E+000
 -3.980000000000000E-002    0.000000000000000E+000
 -3.970000000000000E-002    0.000000000000000E+000
 -3.960000000000000E-002    0.000000000000000E+000
 -3.950000000000000E-002    0.000000000000000E+000
 -3.940000000000000E-002    0.000000000000000E+000
 -3.930000000000000E-002    0.000000000000000E+000
 -3.920000000000000E-002    0.000000000000000E+000
 -3.910000000000000E-002    0.000000000000000E+000
 -3.900000000000000E-002    0.000000000000000E+000
 -3.890000000000000E-002    0.000000000000000E+000
 -3.880000000000000E-002    3.850701616895026E-039
 -3.870000000000000E-002    8.253655599417775E-038
 -3.860000000000000E-002    9.099307900829899E-037
 -3.850000000000000E-002    6.860894697905007E-036
 -3.840000000000000E-002    3.968528015282358E-035
 -3.830000000000000E-002    1.872087609270852E-034
 -3.820000000000000E-002    7.472521432699007E-034
 -3.810000000000000E-002    2.582876741877821E-033
 -3.800000000000000E-002    7.838686905899404E-033
 -3.790000000000000E-002    2.100875968763872E-032
 -3.780000000000000E-002    4.953514382835840E-032
 -3.770000000000000E-002    1.006549287573218E-031
 -3.760000000000000E-002    1.652790281711662E-031
 -3.750000000000000E-002    1.674507723924707E-031
 -3.740000000000000E-002   -1.641619307523138E-031
 -3.730000000000000E-002   -1.581265986023314E-030
 -3.720000000000000E-002   -5.883381541479085E-030
 -3.710000000000000E-002   -1.694430168442298E-029
 -3.700000000000000E-002   -4.240217401221468E-029
 -3.690000000000000E-002   -9.617128903360471E-029
 -3.680000000000000E-002   -2.017261096910962E-028
 -3.670000000000000E-002   -3.956171026345646E-028
 -3.660000000000000E-002   -7.297571213024772E-028
 -3.650000000000000E-002   -1.269536636019802E-027
 -3.640000000000000E-002   -2.082742697187044E-027
 -3.630000000000000E-002   -3.211731762786138E-027
 -3.620000000000000E-002   -4.618857950048686E-027
 -3.610000000000000E-002   -6.093805216414703E-027
 -3.600000000000000E-002   -7.112908798177244E-027
 -3.590000000000000E-002   -6.647064190055106E-027
 -3.580000000000000E-002   -2.929228161014157E-027
 -3.570000000000000E-002    6.782510385376416E-027
 -3.560000000000000E-002    2.637310368667062E-026
 -3.550000000000000E-002    6.084795222777345E-026
 -3.540000000000000E-002    1.159420058629403E-025
 -3.530000000000000E-002    1.971312473770933E-025
 -3.520000000000000E-002    3.077875019671240E-025
 -3.510000000000000E-002    4.462347043024803E-025
 -3.500000000000000E-002    6.015615342326670E-025
 -3.490000000000000E-002    7.482535912606835E-025
 -3.480000000000000E-002    8.400579835915305E-025
 -3.470000000000000E-002    8.039935876586975E-025
 -3.460000000000000E-002    5.360560671195612E-025
 -3.450000000000000E-002   -9.912629571968688E-026
 -3.440000000000000E-002   -1.261768260662867E-024
 -3.430000000000000E-002   -3.120175223440120E-024
 -3.420000000000000E-002   -5.820422804849470E-024
 -3.410000000000000E-002   -9.439863461555481E-024
 -3.400000000000000E-002   -1.392358255434007E-023
 -3.390000000000000E-002   -1.900582698666776E-023
 -3.380000000000000E-002   -2.412257789657897E-023
 -3.370000000000000E-002   -2.832664313194756E-023
 -3.360000000000000E-002   -3.022250697664033E-023
 -3.350000000000000E-002   -2.794382522777318E-023
 -3.340000000000000E-002   -1.920084756957673E-023
 -3.330000000000000E-002   -1.426748947006137E-024
 -3.320000000000000E-002    2.795063245547258E-023
 -3.310000000000000E-002    7.109325951413321E-023
 -3.300000000000000E-002    1.291897393920123E-022
 -3.290000000000000E-002    2.017622783894388E-022
 -3.280000000000000E-002    2.858889129952114E-022
 -3.270000000000000E-002    3.754177823722273E-022
 -3.260000000000000E-002    4.602822409913869E-022
 -3.250000000000000E-002    5.260544840635829E-022
 -3.240000000000000E-002    5.538940131074901E-022
 -3.230000000000000E-002    5.210533237032052E-022
 -3.220000000000000E-002    4.020884744428744E-022
 -3.210000000000000E-002    1.708874672655092E-022
 -3.200000000000000E-002   -1.964298830602350E-022
 -3.190000000000000E-002   -7.177643482172215E-022
 -3.180000000000000E-002   -1.400561506552498E-021
 -3.170000000000000E-002   -2.236828898458521E-021
 -3.160000000000000E-002   -3.197972196710207E-021
 -3.150000000000000E-002   -4.229873546070420E-021
 -3.140000000000000E-002   -5.248722746209349E-021
 -3.130000000000000E-002   -6.138184492952825E-021
 -3.120000000000000E-002   -6.748549319675339E-021
 -3.110000000000000E-002   -6.898577640271039E-021
 -3.100000000000000E-002   -6.380798157802363E-021
 -3.090000000000000E-002   -4.971086347690235E-021
 -3.080000000000000E-002   -2.443381039637265E-021
 -3.070000000000000E-002    1.409597318537262E-021
 -3.060000000000000E-002    6.748876630829441E-021
 -3.050000000000000E-002    1.365452959146736E-020
 -3.040000000000000E-002    2.208380776372944E-020
 -3.030000000000000E-002    3.182308322244009E-020
 -3.020000000000000E-002    4.243595792882285E-020
 -3.010000000000000E-002    5.321170030523623E-020
 -3.000000000000000E-002    6.312048006169749E-020
 -2.990000000000000E-002    7.078439358933165E-020
 -2.980000000000000E-002    7.447577638654288E-020
 -2.970000000000000E-002    7.215628738198644E-020
 -2.960000000000000E-002    6.157110740826909E-020
 -2.950000000000000E-002    4.041167226138036E-020
 -2.940000000000000E-002    6.556861896110654E-021
 -2.930000000000000E-002   -4.160398607746461E-020
 -2.920000000000000E-002   -1.047728986155903E-019
 -2.910000000000000E-002   -1.822898644241111E-019
 -2.900000000000000E-002   -2.716601072235375E-019
 -2.890000000000000E-002   -3.681150431789310E-019
 -2.880000000000000E-002   -4.642761852177672E-019
 -2.870000000000000E-002   -5.500038277560371E-019
 -2.860000000000000E-002   -6.125182786643530E-019
 -2.850000000000000E-002   -6.368769741648218E-019
 -2.840000000000000E-002   -6.068740776372792E-019
 -2.830000000000000E-002   -5.063972039150782E-019
 -2.820000000000000E-002   -3.212296564439509E-019
 -2.810000000000000E-002   -4.122646210347315E-020
 -2.800000000000000E-002    3.372749076507790E-019
 -2.790000000000000E-002    8.090206674901338E-019
 -2.780000000000000E-002    1.357656916562093E-018
 -2.770000000000000E-002    1.954117446866403E-018
 -2.760000000000000E-002    2.555922950748314E-018
 -2.750000000000000E-002    3.107713200015036E-018
 -2.740000000000000E-002    3.543271517660332E-018
 -2.730000000000000E-002    3.789191546069980E-018
 -2.720000000000000E-002    3.770185325481064E-018
 -2.710000000000000E-002    3.415844968940593E-018
 -2.700000000000000E-002    2.668471589302202E-018
 -2.690000000000000E-002    1.491386115685586E-018
 -2.680000000000000E-002   -1.230229758273237E-019
 -2.670000000000000E-002   -2.146371209722936E-018
 -2.660000000000000E-002   -4.509343408311185E-018
 -2.650000000000000E-002   -7.099557777946500E-018
 -2.640000000000000E-002   -9.762856693930156E-018
 -2.630000000000000E-002   -1.230837405233783E-017
 -2.620000000000000E-002   -1.451739143631194E-017
 -2.610000000000000E-002   -1.615560320344573E-017
 -2.600000000000000E-002   -1.698804686080356E-017
 -2.590000000000000E-002   -1.679563532575641E-017
 -2.580000000000000E-002   -1.539204063707801E-017
 -2.570000000000000E-002   -1.263961775738658E-017
 -2.560000000000000E-002   -8.463197390394572E-018
 -2.550000000000000E-002   -2.860859306756762E-018
 -2.540000000000000E-002    4.088780593243495E-018
 -2.530000000000000E-002    1.222272611443314E-017
 -2.520000000000000E-002    2.129270983714391E-017
 -2.510000000000000E-002    3.096636684613839E-017
 -2.500000000000000E-002    4.082949416093184E-017
 -2.490000000000000E-002    5.038852764865412E-017
 -2.480000000000000E-002    5.907288824411185E-017
 -2.470000000000000E-002    6.623762652507184E-017
 -2.460000000000000E-002    7.116786742849932E-017
 -2.450000000000000E-002    7.308769010211512E-017
 -2.440000000000000E-002    7.117703974827125E-017
 -2.430000000000000E-002    6.460100223183413E-017
 -2.420000000000000E-002    5.255572382811089E-017
 -2.410000000000000E-002    3.433446404168036E-017
 -2.400000000000000E-002    9.415479681561962E-018
 -2.390000000000000E-002   -2.242938218673397E-017
 -2.380000000000000E-002   -6.101022549620250E-017
 -2.370000000000000E-002   -1.055878447758125E-016
 -2.360000000000000E-002   -1.547491652866649E-016
 -2.350000000000000E-002   -2.063067860492950E-016
 -2.340000000000000E-002   -2.572425622262433E-016
 -2.330000000000000E-002   -3.037162316388260E-016
 -2.320000000000000E-002   -3.411582595301148E-016
 -2.310000000000000E-002   -3.644615692724818E-016
 -2.300000000000000E-002   -3.682794983313133E-016
 -2.290000000000000E-002   -3.474269192795104E-016
 -2.280000000000000E-002   -2.973694648300403E-016
 -2.270000000000000E-002   -2.147724680955217E-016
 -2.260000000000000E-002   -9.806913879741332E-017
 -2.250000000000000E-002    5.200449141335538E-017
 -2.240000000000000E-002    2.319652519307603E-016
 -2.230000000000000E-002    4.352901991468294E-016
 -2.220000000000000E-002    6.523311462629886E-016
 -2.210000000000000E-002    8.704813648648526E-016
 -2.200000000000000E-002    1.074621324364765E-015
 -2.190000000000000E-002    1.247847824613374E-015
 -2.180000000000000E-002    1.372463800728044E-015
 -2.170000000000000E-002    1.431179209653388E-015
 -2.160000000000000E-002    1.408447115309474E-015
 -2.150000000000000E-002    1.291837910005088E-015
 -2.140000000000000E-002    1.073342969220224E-015
 -2.130000000000000E-002    7.504946679672325E-016
 -2.120000000000000E-002    3.271982141206547E-016
 -2.110000000000000E-002   -1.858096560982209E-016
 -2.100000000000000E-002   -7.709320901131269E-016
 -2.090000000000000E-002   -1.404133256856112E-015
 -2.080000000000000E-002   -2.055791743462104E-015
 -2.070000000000000E-002   -2.691929801268046E-015
 -2.060000000000000E-002   -3.275731346665452E-015
 -2.050000000000000E-002   -3.769241122275128E-015
 -2.040000000000000E-002   -4.135127459336897E-015
 -2.030000000000000E-002   -4.338403288688536E-015
 -2.020000000000000E-002   -4.348015386458584E-015
 -2.010000000000000E-002   -4.138251135369519E-015
 -2.000000000000000E-002   -3.689948090468050E-015
 -1.990000000000000E-002   -2.991532570204228E-015
 -1.980000000000000E-002   -2.039949554065010E-015
 -1.970000000000000E-002   -8.415573544900707E-016
 -1.960000000000000E-002    5.869312189617281E-016
 -1.950000000000000E-002    2.217411238331259E-015
 -1.940000000000000E-002    4.009249821881420E-015
 -1.930000000000000E-002    5.908118618834625E-015
 -1.920000000000000E-002    7.844948471090594E-015
 -1.910000000000000E-002    9.735242933587977E-015
 -1.900000000000000E-002    1.147906755270801E-014
 -1.890000000000000E-002    1.296207853222764E-014
 -1.880000000000000E-002    1.405796965938677E-014
 -1.870000000000000E-002    1.463267083924370E-014
 -1.860000000000000E-002    1.455053764086178E-014
 -1.850000000000000E-002    1.368261277206550E-014
 -1.840000000000000E-002    1.191682652678721E-014
 -1.830000000000000E-002    9.169753819856939E-015
 -1.820000000000000E-002    5.399292564128209E-015
 -1.810000000000000E-002    6.173397978220031E-016
 -1.800000000000000E-002   -5.098628423048829E-015
 -1.790000000000000E-002   -1.159635507359538E-014
 -1.780000000000000E-002   -1.864327318418950E-014
 -1.770000000000000E-002   -2.592589480882921E-014
 -1.760000000000000E-002   -3.305513222163741E-014
 -1.750000000000000E-002   -3.957822784269904E-014
 -1.740000000000000E-002   -4.499756549443662E-014
 -1.730000000000000E-002   -4.879599017575327E-014
 -1.720000000000000E-002   -5.046781487411130E-014
 -1.710000000000000E-002   -4.955398453504608E-014
 -1.700000000000000E-002   -4.567939858946296E-014
 -1.690000000000000E-002   -3.859000128037522E-014
 -1.680000000000000E-002   -2.818691003457136E-014
 -1.670000000000000E-002   -1.455491146419258E-014
 -1.660000000000000E-002    2.017351725754489E-015
 -1.650000000000000E-002    2.102766075661216E-014
 -1.640000000000000E-002    4.176268483614402E-014
 -1.630000000000000E-002    6.331354979814174E-014
 -1.620000000000000E-002    8.460466642268175E-014
 -1.610000000000000E-002    1.044351041589057E-013
 -1.600000000000000E-002    1.215309716458466E-013
 -1.590000000000000E-002    1.346065247819044E-013
 -1.580000000000000E-002    1.424312464932005E-013
 -1.570000000000000E-002    1.438996198771209E-013
 -1.560000000000000E-002    1.381003271749476E-013
 -1.550000000000000E-002    1.243815333892764E-013
 -1.540000000000000E-002    1.024091527148482E-013
 -1.530000000000000E-002    7.221550091520084E-014
 -1.520000000000000E-002    3.423592113532515E-014
 -1.510000000000000E-002   -1.066833301966212E-014
 -1.500000000000000E-002   -6.120240794135636E-014
 -1.490000000000000E-002   -1.156464552331397E-013
 -1.480000000000000E-002   -1.718813404973085E-013
 -1.470000000000000E-002   -2.274323182276760E-013
 -1.460000000000000E-002   -2.795311085423279E-013
 -1.450000000000000E-002   -3.251971875186401E-013
 -1.440000000000000E-002   -3.613383308564592E-013
 -1.430000000000000E-002   -3.848706828209899E-013
 -1.420000000000000E-002   -3.928573953526168E-013
 -1.410000000000000E-002   -3.826641012672685E-013
 -1.400000000000000E-002   -3.521281818555722E-013
 -1.390000000000000E-002   -2.997366400181919E-013
 -1.380000000000000E-002   -2.248059816882273E-013
 -1.370000000000000E-002   -1.276545396929228E-013
 -1.360000000000000E-002   -9.756331975006329E-015
 -1.350000000000000E-002    1.261366678358648E-013
 -1.340000000000000E-002    2.759179101705575E-013
 -1.330000000000000E-002    4.341098205083126E-013
 -1.320000000000000E-002    5.939212517398669E-013
 -1.310000000000000E-002    7.473899865857769E-013
 -1.300000000000000E-002    8.856185924760611E-013
 -1.290000000000000E-002    9.991066868872630E-013
 -1.280000000000000E-002    1.078176910994373E-012
 -1.270000000000000E-002    1.113483733902900E-012
 -1.260000000000000E-002    1.096589079653803E-012
 -1.250000000000000E-002    1.020578315686864E-012
 -1.240000000000000E-002    8.806856330281629E-013
 -1.230000000000000E-002    6.748912855682648E-013
 -1.220000000000000E-002    4.044480141625636E-013
 -1.210000000000000E-002    7.429581316447403E-014
 -1.200000000000000E-002   -3.066784286647502E-013
 -1.190000000000000E-002   -7.255735609018222E-013
 -1.180000000000000E-002   -1.165627960823719E-012
 -1.170000000000000E-002   -1.606616030568982E-012
 -1.160000000000000E-002   -2.025495053074074E-012
 -1.150000000000000E-002   -2.397292944999480E-012
 -1.140000000000000E-002   -2.696219075606084E-012
 -1.130000000000000E-002   -2.896956877414116E-012
 -1.120000000000000E-002   -2.976087860639804E-012
 -1.110000000000000E-002   -2.913581464819910E-012
 -1.100000000000000E-002   -2.694275967834872E-012
 -1.090000000000000E-002   -2.309269565264826E-012
 -1.080000000000000E-002   -1.757135411677966E-012
 -1.070000000000000E-002   -1.044880399143154E-012
 -1.060000000000000E-002   -1.885713434298542E-013
 -1.050000000000000E-002    7.864372034325956E-013
 -1.040000000000000E-002    1.845725110600467E-012
 -1.030000000000000E-002    2.946507464632008E-012
 -1.020000000000000E-002    4.038831104750448E-012
 -1.010000000000000E-002    5.067251740141532E-012
 -1.000000000000000E-002    5.972960345297256E-012
 -9.899999999999999E-003    6.696297598605631E-012
 -9.800000000000000E-003    7.179580757179612E-012
 -9.699999999999999E-003    7.370137311225634E-012
 -9.599999999999999E-003    7.223428480853622E-012
 -9.500000000000000E-003    6.706128093584469E-012
 -9.399999999999999E-003    5.799008169418148E-012
 -9.299999999999999E-003    4.499480862190770E-012
 -9.200000000000000E-003    2.823646279466886E-012
 -9.099999999999999E-003    8.076884562288339E-013
 -8.999999999999999E-003   -1.491506884251623E-012
 -8.900000000000000E-003   -3.996647575801528E-012
 -8.799999999999999E-003   -6.611319936810303E-012
 -8.699999999999999E-003   -9.222345399941461E-012
 -8.600000000000000E-003   -1.170321578720061E-011
 -8.499999999999999E-003   -1.391859028812854E-011
 -8.399999999999999E-003   -1.572977080585634E-011
 -8.300000000000000E-003   -1.700101719723961E-011
 -8.199999999999999E-003   -1.760651395115822E-011
 -8.100000000000000E-003   -1.743771850638082E-011
 -8.000000000000000E-003   -1.641078246580178E-011
 -7.899999999999999E-003   -1.447368836375357E-011
 -7.800000000000000E-003   -1.161268849231143E-011
 -7.699999999999999E-003   -7.857632157708507E-012
 -7.599999999999999E-003   -3.285772610827356E-012
 -7.499999999999999E-003    1.976367413498269E-012
 -7.399999999999999E-003    7.753405758455892E-012
 -7.299999999999999E-003    1.382404743645081E-011
 -7.199999999999999E-003    1.992676239198126E-011
 -7.100000000000000E-003    2.576821187062722E-011
 -6.999999999999999E-003    3.103431183724897E-011
 -6.899999999999999E-003    3.540369514533794E-011
 -6.800000000000000E-003    3.856310799310748E-011
 -6.699999999999999E-003    4.022416099671785E-011
 -6.599999999999999E-003    4.014069079276299E-011
 -6.499999999999999E-003    3.812587778839082E-011
 -6.399999999999999E-003    3.406818205124750E-011
 -6.299999999999999E-003    2.794509307386226E-011
 -6.199999999999999E-003    1.983376215209315E-011
 -6.100000000000000E-003    9.917607413605964E-012
 -5.999999999999999E-003   -1.511883606401425E-012
 -5.899999999999999E-003   -1.405870781389898E-011
 -5.800000000000000E-003   -2.723160903953930E-011
 -5.699999999999999E-003   -4.045912669319617E-011
 -5.599999999999999E-003   -5.311019070261376E-011
 -5.499999999999999E-003   -6.451969050523139E-011
 -5.399999999999999E-003   -7.401818626439932E-011
 -5.299999999999999E-003   -8.096460889520907E-011
 -5.199999999999999E-003   -8.478051661017721E-011
 -5.099999999999999E-003   -8.498431803316791E-011
 -4.999999999999999E-003   -8.122379557757569E-011
 -4.899999999999999E-003   -7.330504513064384E-011
 -4.799999999999999E-003   -6.121621008756621E-011
 -4.699999999999999E-003   -4.514429267868851E-011
 -4.599999999999999E-003   -2.548374820541966E-011
 -4.499999999999999E-003   -2.835720852448994E-012
 -4.399999999999999E-003    2.200289154801227E-011
 -4.299999999999999E-003    4.806062399991867E-011
 -4.199999999999999E-003    7.422296628884924E-011
 -4.099999999999999E-003    9.927330820557742E-011
 -3.999999999999999E-003    1.219423302342829E-010
 -3.899999999999999E-003    1.409639964602686E-010
 -3.799999999999999E-003    1.551361948260067E-010
 -3.699999999999999E-003    1.633833579539622E-010
 -3.599999999999999E-003    1.648184235152008E-010
 -3.499999999999999E-003    1.588010231309402E-010
 -3.399999999999999E-003    1.449888015874618E-010
 -3.299999999999999E-003    1.233789279226382E-010
 -3.199999999999999E-003    9.433686894063054E-011
 -3.099999999999999E-003    5.861000901806936E-011
 -2.999999999999999E-003    1.732405239109504E-011
 -2.899999999999999E-003   -2.803906303625881E-011
 -2.799999999999999E-003   -7.568237250601493E-011
 -2.699999999999999E-003   -1.235538922491033E-010
 -2.599999999999999E-003   -1.694241592061252E-010
 -2.499999999999999E-003   -2.109792859003853E-010
 -2.399999999999999E-003   -2.459258953289399E-010
 -2.299999999999999E-003   -2.721043240098365E-010
 -2.199999999999999E-003   -2.876050081399539E-010
 -2.099999999999999E-003   -2.908823798680477E-010
 -1.999999999999999E-003   -2.808605653569588E-010
 -1.899999999999999E-003   -2.570247181835577E-010
 -1.799999999999999E-003   -2.194922513016924E-010
 -1.699999999999999E-003   -1.690583358201465E-010
 -1.599999999999999E-003   -1.072111880021001E-010
 -1.499999999999999E-003   -3.611391660715681E-011
 -1.399999999999999E-003    4.144938665366178E-011
 -1.299999999999999E-003    1.221633725827462E-010
 -1.199999999999999E-003    2.023054916347145E-010
 -1.099999999999999E-003    2.779009300470873E-010
 -9.999999999999989E-004    3.449031240804018E-010
 -8.999999999999990E-004    3.993924321808169E-010
 -7.999999999999990E-004    4.377844282824465E-010
 -6.999999999999989E-004    4.570377592455550E-010
 -5.999999999999990E-004    4.548508698638983E-010
 -4.999999999999989E-004    4.298364663409590E-010
 -3.999999999999989E-004    3.816631232982268E-010
 -2.999999999999989E-004    3.111539672636055E-010
 -1.999999999999989E-004    2.203342138728555E-010
 -9.999999999999892E-005    1.124209615583474E-010
  1.084202172485504E-018   -8.248462475830679E-012
  1.000000000000011E-004   -1.363508124257826E-010
  2.000000000000011E-004   -2.657719655098210E-010
  3.000000000000011E-004   -3.898570685983105E-010
  4.000000000000011E-004   -5.017076347954533E-010
  5.000000000000011E-004   -5.945143606895013E-010
  6.000000000000011E-004   -6.619113996943827E-010
  7.000000000000011E-004   -6.983365006209535E-010
  8.000000000000011E-004   -6.993795502259603E-010
  9.000000000000012E-004   -6.621015387131874E-010
  1.000000000000001E-003   -5.853065134487237E-010
  1.100000000000001E-003   -4.697495016405488E-010
  1.200000000000001E-003   -3.182659381083677E-010
  1.300000000000001E-003   -1.358102317891563E-010
  1.400000000000001E-003    7.060512178047802E-011
  1.500000000000001E-003    2.920744362397214E-010
  1.600000000000001E-003    5.180685821123169E-010
  1.700000000000001E-003    7.368045000738267E-010
  1.800000000000001E-003    9.357059242891712E-010
  1.900000000000001E-003    1.101941121729389E-009
  2.000000000000001E-003    1.223019636722712E-009
  2.100000000000001E-003    1.287425686606014E-009
  2.200000000000001E-003    1.285262930334005E-009
  2.300000000000001E-003    1.208882965500440E-009
  2.400000000000001E-003    1.053468599959443E-009
  2.500000000000001E-003    8.175423395291114E-010
  2.600000000000001E-003    5.033719004133747E-010
  2.700000000000001E-003    1.172459250573055E-010
  2.800000000000001E-003   -3.304017293844647E-010
  2.900000000000001E-003   -8.250385473944872E-010
  3.000000000000001E-003   -1.348262518275101E-009
  3.100000000000001E-003   -1.878219816332200E-009
  3.200000000000001E-003   -2.390209996890854E-009
  3.300000000000001E-003   -2.857468851689203E-009
  3.400000000000001E-003   -3.252110807284069E-009
  3.500000000000001E-003   -3.546207821217079E-009
  3.600000000000001E-003   -3.712968646562751E-009
  3.700000000000001E-003   -3.727981810067017E-009
  3.800000000000001E-003   -3.570476299969039E-009
  3.900000000000001E-003   -3.224551059435500E-009
  4.000000000000001E-003   -2.680323105926722E-009
  4.100000000000001E-003   -1.934942867678894E-009
  4.200000000000001E-003   -9.934264951190906E-010
  4.300000000000001E-003    1.307383162137858E-010
  4.400000000000001E-003    1.415254971522986E-009
  4.500000000000001E-003    2.828979407911202E-009
  4.600000000000002E-003    4.332202545480960E-009
  4.700000000000001E-003    5.877269055669497E-009
  4.800000000000001E-003    7.409531099409531E-009
  4.900000000000002E-003    8.868626838002105E-009
  5.000000000000001E-003    1.019006478520550E-008
  5.100000000000001E-003    1.130708301853881E-008
  5.200000000000001E-003    1.215273598778805E-008
  5.300000000000002E-003    1.266216774780173E-008
  5.400000000000001E-003    1.277501016931956E-008
  5.500000000000001E-003    1.243785105220698E-008
  5.600000000000002E-003    1.160670371758637E-008
  5.700000000000001E-003    1.024941688920565E-008
  5.800000000000001E-003    8.347970556562702E-009
  5.900000000000002E-003    5.900588981075042E-009
  6.000000000000001E-003    2.923622274237421E-009
  6.100000000000001E-003   -5.468560685655737E-010
  6.200000000000002E-003   -4.453765302504860E-009
  6.300000000000002E-003   -8.718097803098639E-009
  6.400000000000001E-003   -1.323837640782783E-008
  6.500000000000001E-003   -1.789050169885083E-008
  6.600000000000002E-003   -2.252801646083399E-008
  6.700000000000001E-003   -2.698277490872248E-008
  6.800000000000001E-003   -3.106598692051135E-008
  6.900000000000002E-003   -3.456966729466216E-008
  7.000000000000001E-003   -3.726843092985794E-008
  7.100000000000001E-003   -3.892159579380903E-008
  7.200000000000002E-003   -3.927556137714238E-008
  7.300000000000002E-003   -3.806646176915002E-008
  7.400000000000001E-003   -3.502292862501586E-008
  7.500000000000001E-003   -2.986903405534051E-008
  7.600000000000002E-003   -2.232725613885389E-008
  7.700000000000001E-003   -1.212146438157604E-008
  7.800000000000001E-003    1.020240888831919E-009
  7.900000000000001E-003    1.736269747801698E-008
  8.000000000000002E-003    3.716122055250505E-008
  8.100000000000001E-003    6.065933202711597E-008
  8.200000000000001E-003    8.808679786211709E-008
  8.300000000000002E-003    1.196581912341626E-007
  8.400000000000001E-003    1.555716433199455E-007
  8.500000000000002E-003    1.960083329057744E-007
  8.600000000000002E-003    2.411323597631823E-007
  8.700000000000001E-003    2.910910361082933E-007
  8.800000000000002E-003    3.460159468266636E-007
  8.900000000000002E-003    4.060243284874875E-007
  9.000000000000001E-003    4.712209502731606E-007
  9.100000000000002E-003    5.417006910205630E-007
  9.200000000000002E-003    6.175513009158800E-007
  9.300000000000001E-003    6.988568464061774E-007
  9.400000000000002E-003    7.857012399441014E-007
  9.500000000000001E-003    8.781722280382667E-007
  9.600000000000001E-003    9.763658706066051E-007
  9.700000000000002E-003    1.080390405282838E-006
  9.800000000000001E-003    1.190371332434526E-006
  9.900000000000001E-003    1.306455592586509E-006
  1.000000000000000E-002    1.428816207329245E-006
  1.010000000000000E-002    1.557656440272438E-006
  1.020000000000000E-002    1.693214543053353E-006
  1.030000000000000E-002    1.835767308344380E-006
  1.040000000000000E-002    1.985633946245426E-006
  1.050000000000000E-002    2.143179117691763E-006
  1.060000000000000E-002    2.308816787156975E-006
  1.070000000000000E-002    2.483011492643882E-006
  1.080000000000000E-002    2.666281675251748E-006
  1.090000000000000E-002    2.859200492238390E-006
  1.100000000000000E-002    3.062397470399914E-006
  1.110000000000000E-002    3.276559001860208E-006
  1.120000000000000E-002    3.502429273700112E-006
  1.130000000000000E-002    3.740809872600689E-006
  1.140000000000000E-002    3.992560605838496E-006
  1.150000000000000E-002    4.258597716660522E-006
  1.160000000000000E-002    4.539895015467358E-006
  1.170000000000000E-002    4.837481914823395E-006
  1.180000000000000E-002    5.152443930122084E-006
  1.190000000000000E-002    5.485922827839639E-006
  1.200000000000000E-002    5.839114847364257E-006
  1.210000000000000E-002    6.213272890527324E-006
  1.220000000000000E-002    6.609704189921262E-006
  1.230000000000000E-002    7.029773473451114E-006
  1.240000000000000E-002    7.474903280751768E-006
  1.250000000000000E-002    7.946574604874102E-006
  1.260000000000000E-002    8.446329909718769E-006
  1.270000000000000E-002    8.975773171675295E-006
  1.280000000000000E-002    9.536575224657455E-006
  1.290000000000000E-002    1.013047326597940E-005
  1.300000000000000E-002    1.075927653924462E-005
  1.310000000000000E-002    1.142486763506873E-005
  1.320000000000000E-002    1.212920756762273E-005
  1.330000000000000E-002    1.287433811371923E-005
  1.340000000000000E-002    1.366238678853758E-005
  1.350000000000000E-002    1.449557083370974E-005
  1.360000000000000E-002    1.537619992052558E-005
  1.370000000000000E-002    1.630668237920325E-005
  1.380000000000000E-002    1.728952973321097E-005
  1.390000000000000E-002    1.832735850636925E-005
  1.400000000000000E-002    1.942289964408074E-005
  1.410000000000000E-002    2.057900065527809E-005
  1.420000000000000E-002    2.179863249292624E-005
  1.430000000000000E-002    2.308489497715786E-005
  1.440000000000000E-002    2.444102420866180E-005
  1.450000000000000E-002    2.587039534212248E-005
  1.460000000000000E-002    2.737653507323045E-005
  1.470000000000000E-002    2.896312822168943E-005
  1.480000000000000E-002    3.063402125331202E-005
  1.490000000000000E-002    3.239323730932996E-005
  1.500000000000000E-002    3.424498063127453E-005
  1.510000000000000E-002    3.619365156831780E-005
  1.520000000000000E-002    3.824385377807879E-005
  1.530000000000000E-002    4.040040679498760E-005
  1.540000000000000E-002    4.266835216564222E-005
  1.550000000000000E-002    4.505297413309032E-005
  1.560000000000000E-002    4.755980630552828E-005
  1.570000000000000E-002    5.019464255847456E-005
  1.580000000000000E-002    5.296355094301204E-005
  1.590000000000000E-002    5.587288936916659E-005
  1.600000000000000E-002    5.892930950400618E-005
  1.610000000000000E-002    6.213977483209926E-005
  1.620000000000000E-002    6.551155800819491E-005
  1.630000000000000E-002    6.905226558211430E-005
  1.640000000000000E-002    7.276983678658843E-005
  1.650000000000000E-002    7.667254948415733E-005
  1.660000000000000E-002    8.076903611995629E-005
  1.670000000000000E-002    8.506827236020825E-005
  1.680000000000000E-002    8.957959930706833E-005
  1.690000000000000E-002    9.431270502812856E-005
  1.700000000000000E-002    9.927765218314754E-005
  1.710000000000000E-002    1.044848668076004E-004
  1.720000000000000E-002    1.099451399260708E-004
  1.730000000000000E-002    1.156696361303822E-004
  1.740000000000000E-002    1.216698872855483E-004
  1.750000000000000E-002    1.279578240511511E-004
  1.760000000000000E-002    1.345457544511709E-004
  1.770000000000000E-002    1.414463816215851E-004
  1.780000000000000E-002    1.486728296477300E-004
  1.790000000000000E-002    1.562386335570261E-004
  1.800000000000000E-002    1.641577784418286E-004
  1.810000000000000E-002    1.724446749257258E-004
  1.820000000000000E-002    1.811142257996346E-004
  1.830000000000000E-002    1.901818344189676E-004
  1.840000000000000E-002    1.996634189994184E-004
  1.850000000000000E-002    2.095754369133476E-004
  1.860000000000000E-002    2.199348992184457E-004
  1.870000000000000E-002    2.307594121021978E-004