 -4.000000000000000E-002    0.000000000000000E+000
 -3.990000000000000E-002    0.000000000000000E+000
 -3.980000000000000E-002    0.000000000000000E+000
 -3.970000000000000E-002    0.000000000000000E+000
 -3.960000000000000E-002    0.000000000000000E+000
 -3.950000000000000E-002    0.000000000000000E+000
 -3.940000000000000E-002    0.000000000000000E+000
 -3.930000000000000E-002    0.000000000000000E+000
 -3.920000000000000E-002    0.000000000000000E+000
 -3.910000000000000E-002    0.000000000000000E+000
 -3.900000000000000E-002    0.000000000000000E+000
 -3.890000000000000E-002    0.000000000000000E+000
 -3.880000000000000E-002    0.000000000000000E+000
 -3.870000000000000E-002    0.000000000000000E+000
 -3.860000000000000E-002    0.000000000000000E+000
 -3.850000000000000E-002    0.000000000000000E+000
 -3.840000000000000E-002    0.000000000000000E+000
 -3.830000000000000E-002    0.000000000000000E+000
 -3.820000000000000E-002    0.000000000000000E+000
 -3.810000000000000E-002    0.000000000000000E+000
 -3.800000000000000E-002    0.000000000000000E+000
 -3.790000000000000E-002    0.000000000000000E+000
 -3.780000000000000E-002    0.000000000000000E+000
 -3.770000000000000E-002    0.000000000000000E+000
 -3.760000000000000E-002    0.000000000000000E+000
 -3.750000000000000E-002    0.000000000000000E+000
 -3.740000000000000E-002    0.000000000000000E+000
 -3.730000000000000E-002    0.000000000000000E+000
 -3.720000000000000E-002    0.000000000000000E+000
 -3.710000000000000E-002    0.000000000000000E+000
 -3.700000000000000E-002    0.000000000000000E+000
 -3.690000000000000E-002    0.000000000000000E+000
 -3.680000000000000E-002    0.000000000000000E+000
 -3.670000000000000E-002    0.000000000000000E+000
 -3.660000000000000E-002    0.000000000000000E+000
 -3.650000000000000E-002    0.000000000000000E+000
 -3.640000000000000E-002    0.000000000000000E+000
 -3.630000000000000E-002    0.000000000000000E+000
 -3.620000000000000E-002    0.000000000000000E+000
 -3.610000000000000E-002    0.000000000000000E+000
 -3.600000000000000E-002    0.000000000000000E+000
 -3.590000000000000E-002    0.000000000000000E+000
 -3.580000000000000E-002    0.000000000000000E+000
 -3.570000000000000E-002    0.000000000000000E+000
 -3.560000000000000E-002    0.000000000000000E+000
 -3.550000000000000E-002    0.000000000000000E+000
 -3.540000000000000E-002    0.000000000000000E+000
 -3.530000000000000E-002    0.000000000000000E+000
 -3.520000000000000E-002    0.000000000000000E+000
 -3.510000000000000E-002    0.000000000000000E+000
 -3.500000000000000E-002    0.000000000000000E+000
 -3.490000000000000E-002    0.000000000000000E+000
 -3.480000000000000E-002    0.000000000000000E+000
 -3.470000000000000E-002    0.000000000000000E+000
 -3.460000000000000E-002    0.000000000000000E+000
 -3.450000000000000E-002    1.924390591266381E-047
 -3.440000000000000E-002    1.924390591266381E-047
 -3.430000000000000E-002    1.924390591266381E-047
 -3.420000000000000E-002   -4.510265978388825E-047
 -3.410000000000000E-002   -2.152498824326872E-046
 -3.400000000000000E-002   -6.776226111648287E-046
 -3.390000000000000E-002   -1.805270756896843E-045
 -3.380000000000000E-002   -4.032142440367959E-045
 -3.370000000000000E-002   -7.163806174342714E-045
 -3.360000000000000E-002   -1.322255915992677E-044
 -3.350000000000000E-002   -2.085036104641663E-044
 -3.340000000000000E-002   -3.081105624614012E-044
 -3.330000000000000E-002   -4.156378190175599E-044
 -3.320000000000000E-002   -4.817293518712847E-044
 -3.310000000000000E-002   -4.098054302327349E-044
 -3.300000000000000E-002   -4.011082731989426E-045
 -3.290000000000000E-002    9.110138397846916E-044
 -3.280000000000000E-002    2.875639255681082E-043
 -3.270000000000000E-002    6.440272735399129E-043
 -3.260000000000000E-002    1.230836392584046E-042
 -3.250000000000000E-002    2.119316457139623E-042
 -3.240000000000000E-002    3.352924792343912E-042
 -3.230000000000000E-002    4.899321856685940E-042
 -3.220000000000000E-002    6.578003498244587E-042
 -3.210000000000000E-002    7.950820400006532E-042
 -3.200000000000000E-002    8.199179707122351E-042
 -3.190000000000000E-002    5.995810672723766E-042
 -3.180000000000000E-002   -5.815055299656849E-043
 -3.170000000000000E-002   -1.401300645010237E-041
 -3.160000000000000E-002   -3.709296270492189E-041
 -3.150000000000000E-002   -7.233884138998937E-041
 -3.140000000000000E-002   -1.209623894786782E-040
 -3.130000000000000E-002   -1.813368766735810E-040
 -3.120000000000000E-002   -2.470590506432525E-040
 -3.110000000000000E-002   -3.049441544749279E-040
 -3.100000000000000E-002   -3.336508697733645E-040
 -3.090000000000000E-002   -3.040697143613605E-040
 -3.080000000000000E-002   -1.830719236536500E-040
 -3.070000000000000E-002    5.756916420385488E-041
 -3.060000000000000E-002    4.255040846613010E-040
 -3.050000000000000E-002    8.849041242986413E-040
 -3.040000000000000E-002    1.328386947477145E-039
 -3.030000000000000E-002    1.550066119958610E-039
 -3.020000000000000E-002    1.232309463183931E-039
 -3.010000000000000E-002   -3.332049818104799E-041
 -3.000000000000000E-002   -2.662132673627111E-039
 -2.990000000000000E-002   -6.894419352812568E-039
 -2.980000000000000E-002   -1.248085364324308E-038
 -2.970000000000000E-002   -1.821291150540241E-038
 -2.960000000000000E-002   -2.130837471026781E-038
 -2.950000000000000E-002   -1.672157114022527E-038
 -2.940000000000000E-002    3.459255512825193E-039
 -2.930000000000000E-002    5.023857014429483E-038
 -2.920000000000000E-002    1.371240651696289E-037
 -2.910000000000000E-002    2.781295475318784E-037
 -2.900000000000000E-002    4.836708515647497E-037
 -2.890000000000000E-002    7.536576268797297E-037
 -2.880000000000000E-002    1.067289710825074E-036
 -2.870000000000000E-002    1.369577849103533E-036
 -2.860000000000000E-002    1.555534428615666E-036
 -2.850000000000000E-002    1.454394185813385E-036
 -2.840000000000000E-002    8.181330896044184E-037
 -2.830000000000000E-002   -6.791509479487576E-037
 -2.820000000000000E-002   -3.422065722838000E-036
 -2.810000000000000E-002   -7.804081784161107E-036
 -2.800000000000000E-002   -1.413543185873969E-035
 -2.790000000000000E-002   -2.249865681898523E-035
 -2.780000000000000E-002   -3.254673828556297E-035
 -2.770000000000000E-002   -4.324829486099381E-035
 -2.760000000000000E-002   -5.259957848319253E-035
 -2.750000000000000E-002   -5.734403705066434E-035
 -2.740000000000000E-002   -5.276648025969551E-035
 -2.730000000000000E-002   -3.265772203365019E-035
 -2.720000000000000E-002    1.042688552234319E-035
 -2.710000000000000E-002    8.447243711949301E-035
 -2.700000000000000E-002    1.967281401146770E-034
 -2.690000000000000E-002    3.517293702145115E-034
 -2.680000000000000E-002    5.485619909108104E-034
 -2.670000000000000E-002    7.774224743692686E-034
 -2.660000000000000E-002    1.015694696330701E-033
 -2.650000000000000E-002    1.223980689713684E-033
 -2.640000000000000E-002    1.342786785682284E-033
 -2.630000000000000E-002    1.290844864358648E-033
 -2.620000000000000E-002    9.663152906032564E-034
 -2.610000000000000E-002    2.523060918103053E-034
 -2.600000000000000E-002   -9.718031462872806E-034
 -2.590000000000000E-002   -2.811909066763714E-033
 -2.580000000000000E-002   -5.332736430601996E-033
 -2.570000000000000E-002   -8.523359143703645E-033
 -2.560000000000000E-002   -1.225587274748901E-032
 -2.550000000000000E-002   -1.624008924018942E-032
 -2.540000000000000E-002   -1.997913517701269E-032
 -2.530000000000000E-002   -2.273317206674551E-032
 -2.520000000000000E-002   -2.350080131545324E-032
 -2.510000000000000E-002   -2.102994429214448E-032
 -2.500000000000000E-002   -1.387148822329432E-032
 -2.490000000000000E-002   -4.896134590977208E-034
 -2.480000000000000E-002    2.055846769487033E-032
 -2.470000000000000E-002    5.036390868955506E-032
 -2.460000000000000E-002    8.932527944854443E-032
 -2.450000000000000E-002    1.367315850693155E-031
 -2.440000000000000E-002    1.902884704786999E-031
 -2.430000000000000E-002    2.456242798033225E-031
 -2.420000000000000E-002    2.958337741803806E-031
 -2.410000000000000E-002    3.311404524541587E-031
 -2.400000000000000E-002    3.387837964869426E-031
 -2.390000000000000E-002    3.032600075345454E-031
 -2.380000000000000E-002    2.070621438068410E-031
 -2.370000000000000E-002    3.207015786555809E-032
 -2.360000000000000E-002   -2.382726786761611E-031
 -2.350000000000000E-002   -6.159008876129230E-031
 -2.340000000000000E-002   -1.104166121557310E-030
 -2.330000000000000E-002   -1.693073514975259E-030
 -2.320000000000000E-002   -2.353980807213010E-030
 -2.310000000000000E-002   -3.034237487808260E-030
 -2.300000000000000E-002   -3.652492033858808E-030
 -2.290000000000000E-002   -4.095663400825953E-030
 -2.280000000000000E-002   -4.218828633906354E-030
 -2.270000000000000E-002   -3.849468840464891E-030
 -2.260000000000000E-002   -2.797592236974762E-030
 -2.250000000000000E-002   -8.731282335732857E-031
 -2.240000000000000E-002    2.088394053059731E-030
 -2.230000000000000E-002    6.191601050287315E-030
 -2.220000000000000E-002    1.143927367447186E-029
 -2.210000000000000E-002    1.768490077309439E-029
 -2.200000000000000E-002    2.458391880333964E-029
 -2.190000000000000E-002    3.154984137847244E-029
 -2.180000000000000E-002    3.772348849755691E-029
 -2.170000000000000E-002    4.196534649227067E-029
 -2.160000000000000E-002    4.288209128026335E-029
 -2.150000000000000E-002    3.889830335430062E-029
 -2.140000000000000E-002    2.838272277024581E-029
 -2.130000000000000E-002    9.834786435619083E-030
 -2.120000000000000E-002   -1.786871554038277E-029
 -2.110000000000000E-002   -5.517528048814621E-029
 -2.100000000000000E-002   -1.015252383652782E-028
 -2.090000000000000E-002   -1.550175423888120E-028
 -2.080000000000000E-002   -2.121150564290092E-028
 -2.070000000000000E-002   -2.674423925042108E-028
 -2.060000000000000E-002   -3.137369397060792E-028
 -2.050000000000000E-002   -3.420158704310949E-028
 -2.040000000000000E-002   -3.420171637035127E-028
 -2.030000000000000E-002   -3.029578309381855E-028
 -2.020000000000000E-002   -2.146280005783123E-028
 -2.010000000000000E-002   -6.880355833997587E-029
 -2.000000000000000E-002    1.390854537710446E-028
 -1.990000000000000E-002    4.081452499175823E-028
 -1.980000000000000E-002    7.302379786511113E-028
 -1.970000000000000E-002    1.088450706274752E-027
 -1.960000000000000E-002    1.456074905736911E-027
 -1.950000000000000E-002    1.796377715451473E-027
 -1.940000000000000E-002    2.063438731351336E-027
 -1.930000000000000E-002    2.204282926464053E-027
 -1.920000000000000E-002    2.162460785719333E-027
 -1.910000000000000E-002    1.883100152168340E-027
 -1.900000000000000E-002    1.319297136591311E-027
 -1.890000000000000E-002    4.395207056080224E-028
 -1.880000000000000E-002   -7.644965707522070E-028
 -1.870000000000000E-002   -2.270108415060900E-027
 -1.860000000000000E-002   -4.017240467122039E-027
 -1.850000000000000E-002   -5.904017825487320E-027
 -1.840000000000000E-002   -7.785571083924965E-027
 -1.830000000000000E-002   -9.476972481579774E-027
 -1.820000000000000E-002   -1.076105907616781E-026
 -1.810000000000000E-002   -1.140155041914164E-026
 -1.800000000000000E-002   -1.116141712412107E-026
 -1.790000000000000E-002   -9.825890716249166E-027
 -1.780000000000000E-002   -7.228861045405225E-027
 -1.770000000000000E-002   -3.280783563042277E-027
 -1.760000000000000E-002    2.004390486813969E-027
 -1.750000000000000E-002    8.486174990559882E-027
 -1.740000000000000E-002    1.588160600559007E-026
 -1.730000000000000E-002    2.375952048077699E-026
 -1.720000000000000E-002    3.154783843842677E-026
 -1.710000000000000E-002    3.855586537401518E-026
 -1.700000000000000E-002    4.401253229393652E-026
 -1.690000000000000E-002    4.712003323475418E-026
 -1.680000000000000E-002    4.712060909713279E-026
 -1.670000000000000E-002    4.337244800523539E-026
 -1.660000000000000E-002    3.542887829296117E-026
 -1.650000000000000E-002    2.311351271477171E-026
 -1.640000000000000E-002    6.583012205799549E-027
 -1.630000000000000E-002   -1.363126396954155E-026
 -1.620000000000000E-002   -3.661096077019731E-026
 -1.610000000000000E-002   -6.107433402712201E-026
 -1.600000000000000E-002   -8.544000238247926E-026
 -1.590000000000000E-002   -1.079310752643696E-025
 -1.580000000000000E-002   -1.267157139178855E-025
 -1.570000000000000E-002   -1.400748750470217E-025
 -1.560000000000000E-002   -1.465830598532039E-025
 -1.550000000000000E-002   -1.452827395999928E-025
 -1.540000000000000E-002   -1.358298461512183E-025
 -1.530000000000000E-002   -1.185855642827527E-025
 -1.520000000000000E-002   -9.463028313384198E-026
 -1.510000000000000E-002   -6.567930432803931E-026
 -1.500000000000000E-002   -3.388703877015924E-026
 -1.490000000000000E-002   -1.537257932852670E-027
 -1.480000000000000E-002    2.936897696827784E-026
 -1.470000000000000E-002    5.759834028982969E-026
 -1.460000000000000E-002    8.319594637131050E-026
 -1.450000000000000E-002    1.079554175149941E-025
 -1.440000000000000E-002    1.357652875371653E-025
 -1.430000000000000E-002    1.727380714825512E-025
 -1.420000000000000E-002    2.270235275006073E-025
 -1.410000000000000E-002    3.082152343751676E-025
 -1.400000000000000E-002    4.262799258105467E-025
 -1.390000000000000E-002    5.899733522674755E-025
 -1.380000000000000E-002    8.047602828930075E-025
 -1.370000000000000E-002    1.070322306908782E-024
 -1.360000000000000E-002    1.377816855359705E-024
 -1.350000000000000E-002    1.707144516768600E-024
 -1.340000000000000E-002    2.024566778721600E-024
 -1.330000000000000E-002    2.281102888561778E-024
 -1.320000000000000E-002    2.412194674498564E-024
 -1.310000000000000E-002    2.339156033925440E-024
 -1.300000000000000E-002    1.972901331504061E-024
 -1.290000000000000E-002    1.220366964235570E-024
 -1.280000000000000E-002   -6.124913129297543E-027
 -1.270000000000000E-002   -1.776546419321541E-024
 -1.260000000000000E-002   -4.128202941193170E-024
 -1.250000000000000E-002   -7.048852864192455E-024
 -1.240000000000000E-002   -1.045907684248898E-023
 -1.230000000000000E-002   -1.419556418173891E-023
 -1.220000000000000E-002   -1.799745628319518E-023
 -1.210000000000000E-002   -2.149828297184217E-023
 -1.200000000000000E-002   -2.422628598842577E-023
 -1.190000000000000E-002   -2.561597863550187E-023
 -1.180000000000000E-002   -2.503354682000190E-023
 -1.170000000000000E-002   -2.181812025754007E-023
 -1.160000000000000E-002   -1.533989673579525E-023
 -1.150000000000000E-002   -5.074736483714633E-024
 -1.140000000000000E-002    9.307044313410566E-024
 -1.130000000000000E-002    2.784214800031169E-023
 -1.120000000000000E-002    5.017288934484886E-023
 -1.110000000000000E-002    7.545228341488320E-023
 -1.100000000000000E-002    1.022672609100353E-022
 -1.090000000000000E-002    1.285934019895986E-022
 -1.080000000000000E-002    1.517955662588045E-022
 -1.070000000000000E-002    1.686885913876077E-022
 -1.060000000000000E-002    1.756704623505993E-022
 -1.050000000000000E-002    1.689368792050938E-022
 -1.040000000000000E-002    1.447807878170548E-022
 -1.030000000000000E-002    9.997315139706011E-023
 -1.020000000000000E-002    3.221186306677647E-023
 -1.010000000000000E-002   -5.938416469801597E-023
 -1.000000000000000E-002   -1.737702913577848E-022
 -9.899999999999999E-003   -3.075057246394233E-022
 -9.800000000000000E-003   -4.543717606985539E-022
 -9.699999999999999E-003   -6.051397741362366E-022
 -9.599999999999999E-003   -7.475524808484337E-022
 -9.500000000000000E-003   -8.665790570955223E-022
 -9.399999999999999E-003   -9.449955820482155E-022
 -9.299999999999999E-003   -9.643249717102806E-022
 -9.200000000000000E-003   -9.061471617915309E-022
 -9.099999999999999E-003   -7.537576173785726E-022
 -8.999999999999999E-003   -4.941160476818264E-022
 -8.900000000000000E-003   -1.199841332056678E-022
 -8.799999999999999E-003    3.678897540927665E-022
 -8.699999999999999E-003    9.587224091344659E-022
 -8.600000000000000E-003    1.630000611379972E-021
 -8.499999999999999E-003    2.346376708973621E-021
 -8.399999999999999E-003    3.059399031419009E-021
 -8.300000000000000E-003    3.708307228200556E-021
 -8.199999999999999E-003    4.222084008562980E-021
 -8.100000000000000E-003    4.522890312370829E-021
 -8.000000000000000E-003    4.530927018770175E-021
 -7.899999999999999E-003    4.170645900131905E-021
 -7.800000000000000E-003    3.378105712619277E-021
 -7.699999999999999E-003    2.109128373648781E-021
 -7.599999999999999E-003    3.477560011419497E-022
 -7.499999999999999E-003   -1.885622266499784E-021
 -7.399999999999999E-003   -4.527217545938172E-021
 -7.299999999999999E-003   -7.464693123744454E-021
 -7.199999999999999E-003   -1.053477095437603E-020
 -7.100000000000000E-003   -1.352441010577534E-020
 -6.999999999999999E-003   -1.617627285339091E-020
 -6.899999999999999E-003   -1.819899480185118E-020
 -6.800000000000000E-003   -1.928251675514069E-020
 -6.699999999999999E-003   -1.911837770302471E-020
 -6.599999999999999E-003   -1.742447458779730E-020
 -6.499999999999999E-003   -1.397331067583257E-020
 -6.399999999999999E-003   -8.622295601837704E-021
 -6.299999999999999E-003   -1.344174930971441E-021
 -6.199999999999999E-003    7.744756678469317E-021
 -6.100000000000000E-003    1.836132674017897E-020
 -5.999999999999999E-003    3.003992295208075E-020
 -5.899999999999999E-003    4.212758086965455E-020
 -5.800000000000000E-003    5.379244511690772E-020
 -5.699999999999999E-003    6.404784240073006E-020
 -5.599999999999999E-003    7.179354512206179E-020
 -5.499999999999999E-003    7.587480404040585E-020
 -5.399999999999999E-003    7.515845427826124E-020
 -5.299999999999999E-003    6.862405947655174E-020
 -5.199999999999999E-003    5.546636861080833E-020
 -5.099999999999999E-003    3.520372046889288E-020
 -4.999999999999999E-003    7.785388444974839E-021
 -4.899999999999999E-003   -2.631045927191401E-020
 -4.799999999999999E-003   -6.599782066676479E-020
 -4.699999999999999E-003   -1.095329378030319E-019
 -4.599999999999999E-003   -1.545036159706434E-019
 -4.499999999999999E-003   -1.978669111296611E-019
 -4.399999999999999E-003   -2.360428261932165E-019
 -4.299999999999999E-003   -2.650688518029295E-019
 -4.199999999999999E-003   -2.808165386879455E-019
 -4.099999999999999E-003   -2.792668814992842E-019
 -3.999999999999999E-003   -2.568358003870854E-019
 -3.899999999999999E-003   -2.107356999958133E-019
 -3.799999999999999E-003   -1.393528710917001E-019
 -3.699999999999999E-003   -4.261534932955792E-020
 -3.599999999999999E-003    7.767901706405044E-020
 -3.499999999999999E-003    2.176075000066369E-019
 -3.399999999999999E-003    3.709752333241148E-019
 -3.299999999999999E-003    5.293091359249216E-019
 -3.199999999999999E-003    6.820225713819854E-019
 -3.099999999999999E-003    8.167725984360261E-019
 -2.999999999999999E-003    9.200226606653563E-019
 -2.899999999999999E-003    9.778079823319176E-019
 -2.799999999999999E-003    9.766872237016963E-019
 -2.699999999999999E-003    9.048445008717300E-019
 -2.599999999999999E-003    7.532887587130505E-019
 -2.499999999999999E-003    5.170781749831332E-019
 -2.399999999999999E-003    1.964827869997083E-019
 -2.299999999999999E-003   -2.020149327292943E-019
 -2.199999999999999E-003   -6.649870968957061E-019
 -2.099999999999999E-003   -1.171701657016334E-018
 -1.999999999999999E-003   -1.694235544055292E-018
 -1.899999999999999E-003   -2.198139753425282E-018
 -1.799999999999999E-003   -2.643711218224138E-018
 -1.699999999999999E-003   -2.987888121177256E-018
 -1.599999999999999E-003   -3.186745659610924E-018
 -1.499999999999999E-003   -3.198515785791983E-018
 -1.399999999999999E-003   -2.987006992201138E-018
 -1.299999999999999E-003   -2.525243459185883E-018
 -1.199999999999999E-003   -1.799099640371662E-018
 -1.099999999999999E-003   -8.106608628331200E-019
 -9.999999999999989E-004    4.189771494871862E-019
 -8.999999999999990E-004    1.847776969387128E-018
 -7.999999999999990E-004    3.411984672026206E-018
 -6.999999999999989E-004    5.026769559479154E-018
 -5.999999999999990E-004    6.588479060311639E-018
 -4.999999999999989E-004    7.978626530347680E-018
 -3.999999999999989E-004    9.069624715562189E-018
 -2.999999999999989E-004    9.732157909282514E-018
 -1.999999999999989E-004    9.843949702305948E-018
 -9.999999999999892E-005    9.299539725792342E-018
  1.084202172485504E-018    8.020563620694172E-018
  1.000000000000011E-004    5.965881787992632E-018
  2.000000000000011E-004    3.140837303624031E-018
  3.000000000000011E-004   -3.951582502661961E-019
  4.000000000000011E-004   -4.523514924948589E-018
  5.000000000000011E-004   -9.064598997478456E-018
  6.000000000000011E-004   -1.377978067296208E-017
  7.000000000000011E-004   -1.837789602391250E-017
  8.000000000000011E-004   -2.252640987462064E-017
  9.000000000000012E-004   -2.586728332415531E-017
  1.000000000000001E-003   -2.803721443655248E-017
  1.100000000000001E-003   -2.869159325768705E-017
  1.200000000000001E-003   -2.753111789218152E-017
  1.300000000000001E-003   -2.432967751098368E-017
  1.400000000000001E-003   -1.896181801294617E-017
  1.500000000000001E-003   -1.142780531535605E-017
  1.600000000000001E-003   -1.874211534239533E-018
  1.700000000000001E-003    9.392130133524830E-018
  1.800000000000001E-003    2.189881209903441E-017
  1.900000000000001E-003    3.501294118912421E-017
  2.000000000000001E-003    4.795796492388771E-017
  2.100000000000001E-003    5.984295516484273E-017
  2.200000000000001E-003    6.970434707113159E-017
  2.300000000000001E-003    7.655925294014577E-017
  2.400000000000001E-003    7.946860410351394E-017
  2.500000000000001E-003    7.760728504662782E-017
  2.600000000000001E-003    7.033768507667151E-017
  2.700000000000001E-003    5.728210802234821E-017
  2.800000000000001E-003    3.838895423028985E-017
  2.900000000000001E-003    1.398719234269460E-017
  3.000000000000001E-003   -1.517638563201052E-017
  3.100000000000001E-003   -4.792239498644985E-017
  3.200000000000001E-003   -8.265095751290315E-017
  3.300000000000001E-003   -1.173840421098927E-016
  3.400000000000001E-003   -1.498397501914946E-016
  3.500000000000001E-003   -1.775383256736797E-016
  3.600000000000001E-003   -1.979375060060927E-016
  3.700000000000001E-003   -2.085924528035445E-016
  3.800000000000001E-003   -2.073329858257600E-016
  3.900000000000001E-003   -1.924488665325618E-016
  4.000000000000001E-003   -1.628715322674671E-016
  4.100000000000001E-003   -1.183396683564963E-016
  4.200000000000001E-003   -5.953503140622851E-017
  4.300000000000001E-003    1.182506110251424E-017
  4.400000000000001E-003    9.295083074381254E-017
  4.500000000000001E-003    1.800093371870810E-016
  4.600000000000002E-003    2.682272967710138E-016
  4.700000000000001E-003    3.520709073123559E-016
  4.800000000000001E-003    4.255014280026208E-016
  4.900000000000002E-003    4.822999674505630E-016
  5.000000000000001E-003    5.164492305139351E-016
  5.100000000000001E-003    5.225548506575199E-016
  5.200000000000001E-003    4.962836640874449E-016
  5.300000000000002E-003    4.347917075786122E-016
  5.400000000000001E-003    3.371129705582844E-016
  5.500000000000001E-003    2.044773408220085E-016
  5.600000000000002E-003    4.052800088685841E-017
  5.700000000000001E-003   -1.485898955622600E-016
  5.800000000000001E-003   -3.542912013643509E-016
  5.900000000000002E-003   -5.657794547160045E-016
  6.000000000000001E-003   -7.704486127213344E-016
  6.100000000000001E-003   -9.544538129360074E-016
  6.200000000000002E-003   -1.103435818170887E-015
  6.300000000000002E-003   -1.203371414931098E-015
  6.400000000000001E-003   -1.241511326180044E-015
  6.500000000000001E-003   -1.207354877019443E-015
  6.600000000000002E-003   -1.093604790266272E-015
  6.700000000000001E-003   -8.970373841240869E-016
  6.800000000000001E-003   -6.192223892596635E-016
  6.900000000000002E-003   -2.670279128486088E-016
  7.000000000000001E-003    1.471481526175435E-016
  7.100000000000001E-003    6.054676921625969E-016
  7.200000000000002E-003    1.085096824165653E-015
  7.300000000000002E-003    1.559019413443419E-015
  7.400000000000001E-003    1.997213105204233E-015
  7.500000000000001E-003    2.368156572902719E-015
  7.600000000000002E-003    2.640613464343913E-015
  7.700000000000001E-003    2.785612805417699E-015
  7.800000000000001E-003    2.778526146798053E-015
  7.900000000000001E-003    2.601120682166224E-015
  8.000000000000002E-003    2.243459883300819E-015
  8.100000000000001E-003    1.705511579360058E-015
  8.200000000000001E-003    9.983316984870493E-016
  8.300000000000002E-003    1.446974928487731E-016
  8.400000000000001E-003   -8.209111706312756E-016
  8.500000000000002E-003   -1.853059175393156E-015
  8.600000000000002E-003   -2.896868343169888E-015
  8.700000000000001E-003   -3.890290887126777E-015
  8.800000000000002E-003   -4.767088694101457E-015
  8.900000000000002E-003   -5.460416398943150E-015
  9.000000000000001E-003   -5.906853300191027E-015
  9.100000000000002E-003   -6.050685970287301E-015
  9.200000000000002E-003   -5.848205505913000E-015
  9.300000000000001E-003   -5.271750261849937E-015
  9.400000000000002E-003   -4.313219891568977E-015
  9.500000000000001E-003   -2.986781960911370E-015
  9.600000000000001E-003   -1.330508863114425E-015
  9.700000000000002E-003    5.932695294217833E-016
  9.800000000000001E-003    2.699067088988759E-015
  9.900000000000001E-003    4.880884774192013E-015
  1.000000000000000E-002    7.016404253161209E-015
  1.010000000000000E-002    8.972641867991935E-015
  1.020000000000000E-002    1.061286765886309E-014
  1.030000000000000E-002    1.180450393904192E-014
  1.040000000000000E-002    1.242761813813865E-014
  1.050000000000000E-002    1.238354570961477E-014
  1.060000000000000E-002    1.160312963859009E-014
  1.070000000000000E-002    1.005402979850456E-014
  1.080000000000000E-002    7.746542870737305E-015
  1.090000000000000E-002    4.737440552469758E-015
  1.100000000000000E-002    1.131365041984920E-015
  1.110000000000000E-002   -2.920534038711237E-015
  1.120000000000000E-002   -7.224929559437219E-015
  1.130000000000000E-002   -1.155364075448051E-014
  1.140000000000000E-002   -1.565380272128820E-014
  1.150000000000000E-002   -1.926053765799545E-014
  1.160000000000000E-002   -2.211160969007784E-014
  1.170000000000000E-002   -2.396335513320545E-014
  1.180000000000000E-002   -2.460704254426810E-014
  1.190000000000000E-002   -2.388472513754694E-014
  1.200000000000000E-002   -2.170356050537037E-014
  1.210000000000000E-002   -1.804760180611987E-014
  1.220000000000000E-002   -1.298610080173634E-014
  1.230000000000000E-002   -6.677518865791810E-015
  1.240000000000000E-002    6.314069999418955E-016
  1.250000000000000E-002    8.611930126047294E-015
  1.260000000000000E-002    1.686499785885419E-014
  1.270000000000000E-002    2.493819485201444E-014
  1.280000000000000E-002    3.234737341192445E-014
  1.290000000000000E-002    3.860210470135818E-014
  1.300000000000000E-002    4.323379930875029E-014
  1.310000000000000E-002    4.582504490145493E-014
  1.320000000000000E-002    4.603855496629848E-014
  1.330000000000000E-002    4.364397795830259E-014
  1.340000000000000E-002    3.854082595502394E-014
  1.350000000000000E-002    3.077583384028646E-014
  1.360000000000000E-002    2.055326168143355E-014
  1.370000000000000E-002    8.236924931062180E-015
  1.380000000000000E-002   -5.656838457270680E-015
  1.390000000000000E-002   -2.047565803040635E-014
  1.400000000000000E-002   -3.545691245399726E-014
  1.410000000000000E-002   -4.976207118144523E-014
  1.420000000000000E-002   -6.251836751083520E-014
  1.430000000000000E-002   -7.286597119299209E-014
  1.440000000000000E-002   -8.000843195610909E-014
  1.450000000000000E-002   -8.326373976909978E-014
  1.460000000000000E-002   -8.211310819179054E-014
  1.470000000000000E-002   -7.624448774658255E-014
  1.480000000000000E-002   -6.558787558850050E-014
  1.490000000000000E-002   -5.033965958873402E-014
  1.500000000000000E-002   -3.097372784370749E-014
  1.510000000000000E-002   -8.237591221489164E-015
  1.520000000000000E-002    1.686753092344922E-014
  1.530000000000000E-002    4.312282111962306E-014
  1.540000000000000E-002    6.914343193569139E-014
  1.550000000000000E-002    9.344385596709030E-014
  1.560000000000000E-002    1.145144082451772E-013
  1.570000000000000E-002    1.309053813736379E-013
  1.580000000000000E-002    1.413146263600084E-013
  1.590000000000000E-002    1.446737738439873E-013
  1.600000000000000E-002    1.402279853555038E-013
  1.610000000000000E-002    1.276041601330040E-013
  1.620000000000000E-002    1.068626541046028E-013
  1.630000000000000E-002    7.852817565610777E-014
  1.640000000000000E-002    4.359649687195611E-014
  1.650000000000000E-002    3.514560452671350E-015
  1.660000000000000E-002   -3.986691812595040E-014
  1.670000000000000E-002   -8.436774781776841E-014
  1.680000000000000E-002   -1.275772718199867E-013
  1.690000000000000E-002   -1.669742449143143E-013
  1.700000000000000E-002   -2.000622022930331E-013
  1.710000000000000E-002   -2.245136567195453E-013
  1.720000000000000E-002   -2.383153654891029E-013
  1.730000000000000E-002   -2.399063837124802E-013
  1.740000000000000E-002   -2.283002600151398E-013
  1.750000000000000E-002   -2.031832331936655E-013
  1.760000000000000E-002   -1.649808503281009E-013
  1.770000000000000E-002   -1.148869985421403E-013
  1.780000000000000E-002   -5.485090236352990E-014
  1.790000000000000E-002    1.248007351843881E-014
  1.800000000000000E-002    8.386163603525801E-014
  1.810000000000000E-002    1.555949240396438E-013
  1.820000000000000E-002    2.237046983534710E-013
  1.830000000000000E-002    2.841454366820966E-013
  1.840000000000000E-002    3.330254101538935E-013
  1.850000000000000E-002    3.668370620491168E-013
  1.860000000000000E-002    3.826808702665204E-013
  1.870000000000000E-002    3.784694760654519E-013