 -4.000000000000000E-002    0.000000000000000E+000
 -3.990000000000000E-002    0.000000000000000E+000
 -3.980000000000000E-002    0.000000000000000E+000
 -3.970000000000000E-002    0.000000000000000E+000
 -3.960000000000000E-002    0.000000000000000E+000
 -3.950000000000000E-002    0.000000000000000E+000
 -3.940000000000000E-002    0.000000000000000E+000
 -3.930000000000000E-002    0.000000000000000E+000
 -3.920000000000000E-002    0.000000000000000E+000
 -3.910000000000000E-002    0.000000000000000E+000
 -3.900000000000000E-002    0.000000000000000E+000
 -3.890000000000000E-002    0.000000000000000E+000
 -3.880000000000000E-002    0.000000000000000E+000
 -3.870000000000000E-002    0.000000000000000E+000
 -3.860000000000000E-002    0.000000000000000E+000
 -3.850000000000000E-002    0.000000000000000E+000
 -3.840000000000000E-002    0.000000000000000E+000
 -3.830000000000000E-002    0.000000000000000E+000
 -3.820000000000000E-002    0.000000000000000E+000
 -3.810000000000000E-002    0.000000000000000E+000
 -3.800000000000000E-002    0.000000000000000E+000
 -3.790000000000000E-002    0.000000000000000E+000
 -3.780000000000000E-002    0.000000000000000E+000
 -3.770000000000000E-002    0.000000000000000E+000
 -3.760000000000000E-002    0.000000000000000E+000
 -3.750000000000000E-002    0.000000000000000E+000
 -3.740000000000000E-002    0.000000000000000E+000
 -3.730000000000000E-002    0.000000000000000E+000
 -3.720000000000000E-002    0.000000000000000E+000
 -3.710000000000000E-002    0.000000000000000E+000
 -3.700000000000000E-002    0.000000000000000E+000
 -3.690000000000000E-002    0.000000000000000E+000
 -3.680000000000000E-002    0.000000000000000E+000
 -3.670000000000000E-002    0.000000000000000E+000
 -3.660000000000000E-002    0.000000000000000E+000
 -3.650000000000000E-002    0.000000000000000E+000
 -3.640000000000000E-002    0.000000000000000E+000
 -3.630000000000000E-002    0.000000000000000E+000
 -3.620000000000000E-002    0.000000000000000E+000
 -3.610000000000000E-002    0.000000000000000E+000
 -3.600000000000000E-002    0.000000000000000E+000
 -3.590000000000000E-002    0.000000000000000E+000
 -3.580000000000000E-002    0.000000000000000E+000
 -3.570000000000000E-002    0.000000000000000E+000
 -3.560000000000000E-002    0.000000000000000E+000
 -3.550000000000000E-002    0.000000000000000E+000
 -3.540000000000000E-002    0.000000000000000E+000
 -3.530000000000000E-002    0.000000000000000E+000
 -3.520000000000000E-002    0.000000000000000E+000
 -3.510000000000000E-002    0.000000000000000E+000
 -3.500000000000000E-002    0.000000000000000E+000
 -3.490000000000000E-002    0.000000000000000E+000
 -3.480000000000000E-002    0.000000000000000E+000
 -3.470000000000000E-002    0.000000000000000E+000
 -3.460000000000000E-002    0.000000000000000E+000
 -3.450000000000000E-002    0.000000000000000E+000
 -3.440000000000000E-002    0.000000000000000E+000
 -3.430000000000000E-002    0.000000000000000E+000
 -3.420000000000000E-002    0.000000000000000E+000
 -3.410000000000000E-002    0.000000000000000E+000
 -3.400000000000000E-002    0.000000000000000E+000
 -3.390000000000000E-002    0.000000000000000E+000
 -3.380000000000000E-002    0.000000000000000E+000
 -3.370000000000000E-002    0.000000000000000E+000
 -3.360000000000000E-002    0.000000000000000E+000
 -3.350000000000000E-002    0.000000000000000E+000
 -3.340000000000000E-002    0.000000000000000E+000
 -3.330000000000000E-002    0.000000000000000E+000
 -3.320000000000000E-002    0.000000000000000E+000
 -3.310000000000000E-002    0.000000000000000E+000
 -3.300000000000000E-002    0.000000000000000E+000
 -3.290000000000000E-002    0.000000000000000E+000
 -3.280000000000000E-002    0.000000000000000E+000
 -3.270000000000000E-002    0.000000000000000E+000
 -3.260000000000000E-002    0.000000000000000E+000
 -3.250000000000000E-002    0.000000000000000E+000
 -3.240000000000000E-002    0.000000000000000E+000
 -3.230000000000000E-002    0.000000000000000E+000
 -3.220000000000000E-002    0.000000000000000E+000
 -3.210000000000000E-002    0.000000000000000E+000
 -3.200000000000000E-002    0.000000000000000E+000
 -3.190000000000000E-002    0.000000000000000E+000
 -3.180000000000000E-002    0.000000000000000E+000
 -3.170000000000000E-002    0.000000000000000E+000
 -3.160000000000000E-002    0.000000000000000E+000
 -3.150000000000000E-002    0.000000000000000E+000
 -3.140000000000000E-002    3.227338917544571E-047
 -3.130000000000000E-002    1.158638607846616E-046
 -3.120000000000000E-002    1.994543323938775E-046
 -3.110000000000000E-002    2.766301686988720E-046
 -3.100000000000000E-002    3.343618864368635E-046
 -3.090000000000000E-002    2.954736493028571E-046
 -3.080000000000000E-002    1.677201148214039E-047
 -3.070000000000000E-002   -1.906863488943162E-046
 -3.060000000000000E-002   -8.876195984284726E-046
 -3.050000000000000E-002   -1.466014269971317E-045
 -3.040000000000000E-002   -1.765371000719643E-045
 -3.030000000000000E-002   -1.888857866142127E-045
 -3.020000000000000E-002   -1.876588235937409E-045
 -3.010000000000000E-002   -1.477457017710172E-045
 -3.000000000000000E-002   -9.108039511441467E-046
 -2.990000000000000E-002    8.589003824499715E-046
 -2.980000000000000E-002    1.666628029052908E-045
 -2.970000000000000E-002    1.034914765575113E-045
 -2.960000000000000E-002   -3.630940541353335E-045
 -2.950000000000000E-002   -1.421211287965307E-044
 -2.940000000000000E-002   -3.630388055574877E-044
 -2.930000000000000E-002   -7.449223803844853E-044
 -2.920000000000000E-002   -1.338827950151794E-043
 -2.910000000000000E-002   -2.137194258649765E-043
 -2.900000000000000E-002   -3.072407660603546E-043
 -2.890000000000000E-002   -3.902284871481026E-043
 -2.880000000000000E-002   -4.145100591998208E-043
 -2.870000000000000E-002   -2.942081876463102E-043
 -2.860000000000000E-002    1.014203270391939E-043
 -2.850000000000000E-002    9.575550992867832E-043
 -2.840000000000000E-002    2.503541659826214E-042
 -2.830000000000000E-002    4.988482309565715E-042
 -2.820000000000000E-002    8.620931399044582E-042
 -2.810000000000000E-002    1.346004441743373E-041
 -2.800000000000000E-002    1.924877531454868E-041
 -2.790000000000000E-002    2.518304294219113E-041
 -2.780000000000000E-002    2.962064892123534E-041
 -2.770000000000000E-002    2.976259321097230E-041
 -2.760000000000000E-002    2.136113223665700E-041
 -2.750000000000000E-002   -1.427392153822999E-042
 -2.740000000000000E-002   -4.591560811045956E-041
 -2.730000000000000E-002   -1.202522840966700E-040
 -2.720000000000000E-002   -2.320539572476767E-040
 -2.710000000000000E-002   -3.860425103856167E-040
 -2.700000000000000E-002   -5.804667853107428E-040
 -2.690000000000000E-002   -8.022169054822167E-040
 -2.680000000000000E-002   -1.020754551501709E-039
 -2.670000000000000E-002   -1.181355497483548E-039
 -2.660000000000000E-002   -1.198664874248415E-039
 -2.650000000000000E-002   -9.521907983629082E-040
 -2.640000000000000E-002   -2.861191147363996E-040
 -2.630000000000000E-002    9.834520879075304E-040
 -2.620000000000000E-002    3.050164812584588E-039
 -2.610000000000000E-002    6.083977717636516E-039
 -2.600000000000000E-002    1.017908388101518E-038
 -2.590000000000000E-002    1.528083122444277E-038
 -2.580000000000000E-002    2.109176976071388E-038
 -2.570000000000000E-002    2.696096573481287E-038
 -2.560000000000000E-002    3.176642538803736E-038
 -2.550000000000000E-002    3.380786505877695E-038
 -2.540000000000000E-002    3.073599429145200E-038
 -2.530000000000000E-002    1.955436673781762E-038
 -2.520000000000000E-002   -3.260572003640198E-039
 -2.510000000000000E-002   -4.146795782727855E-038
 -2.500000000000000E-002   -9.854251973471969E-038
 -2.490000000000000E-002   -1.768730621465099E-037
 -2.480000000000000E-002   -2.766412313785948E-037
 -2.470000000000000E-002   -3.943722654281300E-037
 -2.460000000000000E-002   -5.211993134513045E-037
 -2.450000000000000E-002   -6.409569104328371E-037
 -2.440000000000000E-002   -7.283171651631414E-037
 -2.430000000000000E-002   -7.473092847279067E-037
 -2.420000000000000E-002   -6.507085959100271E-037
 -2.410000000000000E-002   -3.809348648605647E-037
 -2.400000000000000E-002    1.267552603613490E-037
 -2.390000000000000E-002    9.379011272958404E-037
 -2.380000000000000E-002    2.108407879827510E-036
 -2.370000000000000E-002    3.669307841111341E-036
 -2.360000000000000E-002    5.606331681272466E-036
 -2.350000000000000E-002    7.834559994651138E-036
 -2.340000000000000E-002    1.016943442584753E-035
 -2.330000000000000E-002    1.229681574993949E-035
 -2.320000000000000E-002    1.374655922132843E-035
 -2.310000000000000E-002    1.387616856491844E-035
 -2.300000000000000E-002    1.187324498639381E-035
 -2.290000000000000E-002    6.787437991708975E-036
 -2.280000000000000E-002   -2.396229732025068E-036
 -2.270000000000000E-002   -1.663085585162708E-035
 -2.260000000000000E-002   -3.661845961904472E-035
 -2.250000000000000E-002   -6.255367062275453E-035
 -2.240000000000000E-002   -9.380465304115442E-035
 -2.230000000000000E-002   -1.285485516788773E-034
 -2.220000000000000E-002   -1.633956061297212E-034
 -2.210000000000000E-002   -1.930566594174712E-034
 -2.200000000000000E-002   -2.101309040495924E-034
 -2.190000000000000E-002   -2.051120821662828E-034
 -2.180000000000000E-002   -1.667273805316930E-034
 -2.170000000000000E-002   -8.272943168719945E-035
 -2.160000000000000E-002    5.874862798667133E-035
 -2.150000000000000E-002    2.671983458874306E-034
 -2.140000000000000E-002    5.470855426301652E-034
 -2.130000000000000E-002    8.946242517924012E-034
 -2.120000000000000E-002    1.294179147707146E-033
 -2.110000000000000E-002    1.714659373469707E-033
 -2.100000000000000E-002    2.106437544827308E-033
 -2.090000000000000E-002    2.399501255374726E-033
 -2.080000000000000E-002    2.503691449828234E-033
 -2.070000000000000E-002    2.311963498276613E-033
 -2.060000000000000E-002    1.707594656704180E-033
 -2.050000000000000E-002    5.760975934908468E-034
 -2.040000000000000E-002   -1.177729776201909E-033
 -2.030000000000000E-002   -3.607743813334997E-033
 -2.020000000000000E-002   -6.700263325071840E-033
 -2.010000000000000E-002   -1.034558507429225E-032
 -2.000000000000000E-002   -1.431016141279457E-032
 -1.990000000000000E-002   -1.821352207340272E-032
 -1.980000000000000E-002   -2.151510393962202E-032
 -1.970000000000000E-002   -2.351691769163487E-032
 -1.960000000000000E-002   -2.338828196117398E-032
 -1.950000000000000E-002   -2.021841441787276E-032
 -1.940000000000000E-002   -1.310129081403087E-032
 -1.930000000000000E-002   -1.254683646208629E-033
 -1.920000000000000E-002    1.582843615184696E-032
 -1.910000000000000E-002    3.820290536151715E-032
 -1.900000000000000E-002    6.528144510117017E-032
 -1.890000000000000E-002    9.565103531689311E-032
 -1.880000000000000E-002    1.269213492591140E-031
 -1.870000000000000E-002    1.556366902587365E-031
 -1.860000000000000E-002    1.772866620848707E-031
 -1.850000000000000E-002    1.864515012998952E-031
 -1.840000000000000E-002    1.771147136977715E-031
 -1.830000000000000E-002    1.431664778419551E-031
 -1.820000000000000E-002    7.910675532680855E-032
 -1.810000000000000E-002   -1.906464964036054E-032
 -1.800000000000000E-002   -1.528111251963175E-031
 -1.790000000000000E-002   -3.199477299618443E-031
 -1.780000000000000E-002   -5.135623068851076E-031
 -1.770000000000000E-002   -7.211101843026871E-031
 -1.760000000000000E-002   -9.238527621590593E-031
 -1.750000000000000E-002   -1.096827803021433E-030
 -1.740000000000000E-002   -1.209541801231616E-030
 -1.730000000000000E-002   -1.227554215346517E-030
 -1.720000000000000E-002   -1.115076612622830E-030
 -1.710000000000000E-002   -8.386300625624988E-031
 -1.700000000000000E-002   -3.716968678930719E-031
 -1.690000000000000E-002    2.998402862934685E-031
 -1.680000000000000E-002    1.171838179917538E-030
 -1.670000000000000E-002    2.216151929170109E-030
 -1.660000000000000E-002    3.375724889922587E-030
 -1.650000000000000E-002    4.561354406720593E-030
 -1.640000000000000E-002    5.651073536830758E-030
 -1.630000000000000E-002    6.493087349358600E-030
 -1.620000000000000E-002    6.913108347446580E-030
 -1.610000000000000E-002    6.726693179051618E-030
 -1.600000000000000E-002    5.756796182532874E-030
 -1.590000000000000E-002    3.856228537669256E-030
 -1.580000000000000E-002    9.340193724736276E-031
 -1.570000000000000E-002   -3.016097793174962E-030
 -1.560000000000000E-002   -7.887690835102205E-030
 -1.550000000000000E-002   -1.343755147933383E-029
 -1.540000000000000E-002   -1.926959640640085E-029
 -1.530000000000000E-002   -2.483125078373972E-029
 -1.520000000000000E-002   -2.942675555847367E-029
 -1.510000000000000E-002   -3.225139087023616E-029
 -1.500000000000000E-002   -3.244932702030353E-029
 -1.490000000000000E-002   -2.919603520764546E-029
 -1.480000000000000E-002   -2.180346943621983E-029
 -1.470000000000000E-002   -9.843003483457222E-030
 -1.460000000000000E-002    6.722671934646704E-030
 -1.450000000000000E-002    2.741142172461403E-029
 -1.440000000000000E-002    5.111388259124014E-029
 -1.430000000000000E-002    7.602542163209834E-029
 -1.420000000000000E-002    9.963899074872478E-029
 -1.410000000000000E-002    1.188197847544987E-028
 -1.400000000000000E-002    1.299793070760443E-028
 -1.390000000000000E-002    1.293606429892813E-028
 -1.380000000000000E-002    1.134371163923254E-028
 -1.370000000000000E-002    7.941331163981489E-029
 -1.360000000000000E-002    2.580174207046607E-029
 -1.350000000000000E-002   -4.696995699707114E-029
 -1.340000000000000E-002   -1.359847674465419E-028
 -1.330000000000000E-002   -2.353760168049444E-028
 -1.320000000000000E-002   -3.360747146561193E-028
 -1.310000000000000E-002   -4.258647507699448E-028
 -1.300000000000000E-002   -4.898424347833942E-028
 -1.290000000000000E-002   -5.113590146070908E-028
 -1.280000000000000E-002   -4.734949135777465E-028
 -1.270000000000000E-002   -3.610640940471879E-028
 -1.260000000000000E-002   -1.630842116042297E-028
 -1.250000000000000E-002    1.244299216284520E-028
 -1.240000000000000E-002    4.955784169648492E-028
 -1.230000000000000E-002    9.319102143143525E-028
 -1.220000000000000E-002    1.400374762876634E-027
 -1.210000000000000E-002    1.852344463077798E-027
 -1.200000000000000E-002    2.224187334259485E-027
 -1.190000000000000E-002    2.439840013909294E-027
 -1.180000000000000E-002    2.415751828685834E-027
 -1.170000000000000E-002    2.068408672977516E-027
 -1.160000000000000E-002    1.324413360351954E-027
 -1.150000000000000E-002    1.327954129657413E-028
 -1.140000000000000E-002   -1.521144660441716E-027
 -1.130000000000000E-002   -3.601560359199840E-027
 -1.120000000000000E-002   -6.008866239831759E-027
 -1.110000000000000E-002   -8.569507843220273E-027
 -1.100000000000000E-002   -1.103085359914254E-026
 -1.090000000000000E-002   -1.306347980342280E-026
 -1.080000000000000E-002   -1.427302457730872E-026
 -1.070000000000000E-002   -1.422339137713648E-026
 -1.060000000000000E-002   -1.247239541166752E-026
 -1.050000000000000E-002   -8.619900925475457E-027
 -1.040000000000000E-002   -2.367115183238794E-027
 -1.030000000000000E-002    6.415968586412892E-027
 -1.020000000000000E-002    1.761980116398966E-026
 -1.010000000000000E-002    3.082790589503220E-026
 -1.000000000000000E-002    4.526139616879223E-026
 -9.899999999999999E-003    5.974513427104986E-026
 -9.800000000000000E-003    7.270609622770383E-026
 -9.699999999999999E-003    8.221414474275297E-026
 -9.599999999999999E-003    8.607415739835487E-026
 -9.500000000000000E-003    8.197555822273873E-026
 -9.399999999999999E-003    6.770117158920965E-026
 -9.299999999999999E-003    4.139147145808157E-026
 -9.200000000000000E-003    1.853547339755399E-027
 -9.099999999999999E-003   -5.110412381884087E-026
 -8.999999999999999E-003   -1.163379837931295E-025
 -8.900000000000000E-003   -1.910717320266931E-025
 -8.799999999999999E-003   -2.706761625101649E-025
 -8.699999999999999E-003   -3.485719952663995E-025
 -8.600000000000000E-003   -4.163023495877025E-025
 -8.499999999999999E-003   -4.638169735132683E-025
 -8.399999999999999E-003   -4.800020474650281E-025
 -8.300000000000000E-003   -4.534736357889047E-025
 -8.199999999999999E-003   -3.736313882857126E-025
 -8.100000000000000E-003   -2.319435264813126E-025
 -8.000000000000000E-003   -2.340146591301153E-026
 -7.899999999999999E-003    2.519509168423738E-025
 -7.800000000000000E-003    5.875417102955158E-025
 -7.699999999999999E-003    9.690085980900321E-025
 -7.599999999999999E-003    1.373332104811452E-024
 -7.499999999999999E-003    1.768558242203433E-024
 -7.399999999999999E-003    2.114301737954132E-024
 -7.299999999999999E-003    2.363196474214245E-024
 -7.199999999999999E-003    2.463415494632127E-024
 -7.100000000000000E-003    2.362314584202535E-024
 -6.999999999999999E-003    2.011159997295524E-024
 -6.899999999999999E-003    1.370790355295833E-024
 -6.800000000000000E-003    4.179341624896422E-025
 -6.699999999999999E-003   -8.482312880905208E-025
 -6.599999999999999E-003   -2.399823208912200E-024
 -6.499999999999999E-003   -4.174959213396400E-024
 -6.399999999999999E-003   -6.074168060163678E-024
 -6.299999999999999E-003   -7.959287209461102E-024
 -6.199999999999999E-003   -9.655599817379863E-024
 -6.100000000000000E-003   -1.095786847602152E-023
 -5.999999999999999E-003   -1.164073075233095E-023
 -5.899999999999999E-003   -1.147365639452445E-023
 -5.800000000000000E-003   -1.024029382113542E-023
 -5.699999999999999E-003   -7.761604543816009E-024
 -5.599999999999999E-003   -3.921685021073266E-024
 -5.499999999999999E-003    1.305347692247278E-024
 -5.399999999999999E-003    7.829522121640887E-024
 -5.299999999999999E-003    1.542279977335772E-023
 -5.199999999999999E-003    2.370337700777177E-023
 -5.099999999999999E-003    3.212953387852401E-023
 -4.999999999999999E-003    4.000599116619482E-023
 -4.899999999999999E-003    4.650536559961735E-023
 -4.799999999999999E-003    5.070662280760010E-023
 -4.699999999999999E-003    5.165142593067206E-023
 -4.599999999999999E-003    4.841789056026045E-023
 -4.499999999999999E-003    4.020969825234942E-023
 -4.399999999999999E-003    2.645651814356164E-023
 -4.299999999999999E-003    6.919893257296065E-024
 -4.199999999999999E-003   -1.820330584740027E-023
 -4.099999999999999E-003   -4.818943189872939E-023
 -3.999999999999999E-003   -8.171942828688773E-023
 -3.899999999999999E-003   -1.168445342617967E-022
 -3.799999999999999E-003   -1.509976656750311E-022
 -3.699999999999999E-003   -1.810604426335520E-022
 -3.599999999999999E-003   -2.034937370305255E-022
 -3.499999999999999E-003   -2.145356096949535E-022
 -3.399999999999999E-003   -2.104658929347785E-022
 -3.299999999999999E-003   -1.879307341253671E-022
 -3.199999999999999E-003   -1.443135944040884E-022
 -3.099999999999999E-003   -7.813200032991339E-023
 -2.999999999999999E-003    1.056761112759948E-023
 -2.899999999999999E-003    1.198510027104339E-022
 -2.799999999999999E-003    2.456120932024287E-022
 -2.699999999999999E-003    3.814051914964886E-022
 -2.599999999999999E-003    5.184347387075097E-022
 -2.499999999999999E-003    6.457397511470136E-022
 -2.399999999999999E-003    7.506019852942972E-022
 -2.299999999999999E-003    8.191947655474604E-022
 -2.199999999999999E-003    8.374727240842576E-022
 -2.099999999999999E-003    7.922819954068846E-022
 -1.999999999999999E-003    6.726479418256777E-022
 -1.899999999999999E-003    4.711729306878538E-022
 -1.799999999999999E-003    1.854512103205085E-022
 -1.699999999999999E-003   -1.806121096844652E-022
 -1.599999999999999E-003   -6.157091494522696E-022
 -1.499999999999999E-003   -1.100404663659608E-021
 -1.399999999999999E-003   -1.606918986681969E-021
 -1.299999999999999E-003   -2.099546625007890E-021
 -1.199999999999999E-003   -2.535813951622345E-021
 -1.099999999999999E-003   -2.868439427531847E-021
 -9.999999999999989E-004   -3.048107947220059E-021
 -8.999999999999990E-004   -3.027005568784757E-021
 -7.999999999999990E-004   -2.762988255063170E-021
 -6.999999999999989E-004   -2.224176015361337E-021
 -5.999999999999990E-004   -1.393694441290155E-021
 -4.999999999999989E-004   -2.742030500274964E-022
 -3.999999999999989E-004    1.108193235724998E-021
 -2.999999999999989E-004    2.701097701323541E-021
 -1.999999999999989E-004    4.424484576563856E-021
 -9.999999999999892E-005    6.171289168423717E-021
  1.084202172485504E-018    7.810269591489658E-021
  1.000000000000011E-004    9.191371317297083E-021
  2.000000000000011E-004    1.015367470366760E-020
  3.000000000000011E-004    1.053580719611694E-020
  4.000000000000011E-004    1.018849029043877E-020
  5.000000000000011E-004    8.988651728732152E-021
  6.000000000000011E-004    6.854300355109384E-021
  7.000000000000011E-004    3.759137375834877E-021
  8.000000000000011E-004   -2.542865475292755E-022
  9.000000000000012E-004   -5.064194344147452E-021
  1.000000000000001E-003   -1.046333167066234E-020
  1.100000000000001E-003   -1.615812806349305E-020
  1.200000000000001E-003   -2.177438433388727E-020
  1.300000000000001E-003   -2.687028956957901E-020
  1.400000000000001E-003   -3.095716129602994E-020
  1.500000000000001E-003   -3.352778614733633E-020
  1.600000000000001E-003   -3.409158707029424E-020
  1.700000000000001E-003   -3.221522151129231E-020
  1.800000000000001E-003   -2.756648621348199E-020
  1.900000000000001E-003   -1.995880034034017E-020
  2.000000000000001E-003   -9.392936835949221E-021
  2.100000000000001E-003    3.907678753623191E-021
  2.200000000000001E-003    1.947200194150391E-020
  2.300000000000001E-003    3.657054438739622E-020
  2.400000000000001E-003    5.422211706994925E-020
  2.500000000000001E-003    7.122083200572807E-020
  2.600000000000001E-003    8.618502301638283E-020
  2.700000000000001E-003    9.762835999739735E-020
  2.800000000000001E-003    1.040517973905593E-019
  2.900000000000001E-003    1.040531143188537E-019
  3.000000000000001E-003    9.644907843070412E-020
  3.100000000000001E-003    8.040309909621354E-020
  3.200000000000001E-003    5.554994126418862E-020
  3.300000000000001E-003    2.210745402315823E-020
  3.400000000000001E-003   -1.903526801680594E-020
  3.500000000000001E-003   -6.626411890834751E-020
  3.600000000000001E-003   -1.172305680196288E-019
  3.700000000000001E-003   -1.688951342341775E-019
  3.800000000000001E-003   -2.176297173333989E-019
  3.900000000000001E-003   -2.593812763933686E-019
  4.000000000000001E-003   -2.898952467703060E-019
  4.100000000000001E-003   -3.049925371145568E-019
  4.200000000000001E-003   -3.008884229601474E-019
  4.300000000000001E-003   -2.745369364314928E-019
  4.400000000000001E-003   -2.239797469041665E-019
  4.500000000000001E-003   -1.486741331681022E-019
  4.600000000000002E-003   -4.977266719254736E-020
  4.700000000000001E-003    6.967436326573950E-020
  4.800000000000001E-003    2.046213788834857E-019
  4.900000000000002E-003    3.480593627458541E-019
  5.000000000000001E-003    4.911960688381621E-019
  5.100000000000001E-003    6.237957181301227E-019
  5.200000000000001E-003    7.346792896670148E-019
  5.300000000000002E-003    8.123748260900526E-019
  5.400000000000001E-003    8.458941499154944E-019
  5.500000000000001E-003    8.256003932623204E-019
  5.600000000000002E-003    7.441166948265661E-019
  5.700000000000001E-003    5.972173872982260E-019
  5.800000000000001E-003    3.846335779917749E-019
  5.900000000000002E-003    1.107017282670848E-019
  6.000000000000001E-003   -2.152163069465722E-019
  6.100000000000001E-003   -5.786077151608065E-019
  6.200000000000002E-003   -9.600317247249675E-019
  6.300000000000002E-003   -1.335729106455281E-018
  6.400000000000001E-003   -1.678633008672148E-018
  6.500000000000001E-003   -1.959769663686893E-018
  6.600000000000002E-003   -2.150007072483775E-018
  6.700000000000001E-003   -2.222080495366368E-018
  6.800000000000001E-003   -2.152788897240343E-018
  6.900000000000002E-003   -1.925233910507115E-018
  7.000000000000001E-003   -1.530947722821214E-018
  7.100000000000001E-003   -9.717420465983333E-019
  7.200000000000002E-003   -2.611076490676942E-019
  7.300000000000002E-003    5.749991731941923E-019
  7.400000000000001E-003    1.498127842435616E-018
  7.500000000000001E-003    2.458172143186788E-018
  7.600000000000002E-003    3.395141649897607E-018
  7.700000000000001E-003    4.241873480975597E-018
  7.800000000000001E-003    4.927626287306867E-018
  7.900000000000001E-003    5.382433167838049E-018
  8.000000000000002E-003    5.542011538765805E-018
  8.100000000000001E-003    5.352970199870363E-018
  8.200000000000001E-003    4.777991630302231E-018
  8.300000000000002E-003    3.800629669436166E-018
  8.400000000000001E-003    2.429338252185262E-018
  8.500000000000002E-003    7.003494362128707E-019
  8.600000000000002E-003   -1.320950159891019E-018
  8.700000000000001E-003   -3.540442677681950E-018
  8.800000000000002E-003   -5.837711122860204E-018
  8.900000000000002E-003   -8.070584292848282E-018
  9.000000000000001E-003   -1.008176003447005E-017
  9.100000000000002E-003   -1.170733470803702E-017
  9.200000000000002E-003   -1.278690801755625E-017
  9.300000000000001E-003   -1.317478462957318E-017
  9.400000000000002E-003   -1.275165552397852E-017
  9.500000000000001E-003   -1.143604312665958E-017
  9.600000000000001E-003   -9.194696081971818E-018
  9.700000000000002E-003   -6.051112304306962E-018
  9.800000000000001E-003   -2.091377204367235E-018
  9.900000000000001E-003    2.533420480543582E-018
  1.000000000000000E-002    7.608779030693039E-018
  1.010000000000000E-002    1.286278392038225E-017
  1.020000000000000E-002    1.797666867666633E-017
  1.030000000000000E-002    2.259981483691306E-017
  1.040000000000000E-002    2.636872255526732E-017
  1.050000000000000E-002    2.892921222522944E-017
  1.060000000000000E-002    2.996077901265694E-017
  1.070000000000000E-002    2.920173362871576E-017
  1.080000000000000E-002    2.647361746364134E-017
  1.090000000000000E-002    2.170313925326943E-017
  1.100000000000000E-002    1.493993412214584E-017
  1.110000000000000E-002    6.368452198052849E-018
  1.120000000000000E-002   -3.687499238048793E-018
  1.130000000000000E-002   -1.476873823073163E-017
  1.140000000000000E-002   -2.629396746736344E-017
  1.150000000000000E-002   -3.758254899980682E-017
  1.160000000000000E-002   -4.788642290431381E-017
  1.170000000000000E-002   -5.643019197683756E-017
  1.180000000000000E-002   -6.245767767378844E-017
  1.190000000000000E-002   -6.528271557340068E-017
  1.200000000000000E-002   -6.434138544409336E-017
  1.210000000000000E-002   -5.924242274998090E-017
  1.220000000000000E-002   -4.981242645086914E-017
  1.230000000000000E-002   -3.613222548316368E-017
  1.240000000000000E-002   -1.856121184071281E-017
  1.250000000000000E-002    2.253439672502608E-018
  1.260000000000000E-002    2.538482588372729E-017
  1.270000000000000E-002    4.965315386806079E-017
  1.280000000000000E-002    7.367167806784988E-017
  1.290000000000000E-002    9.591092442281163E-017
  1.300000000000000E-002    1.147791454843804E-016
  1.310000000000000E-002    1.287156136320983E-016
  1.320000000000000E-002    1.362922326306464E-016
  1.330000000000000E-002    1.363179295698730E-016
  1.340000000000000E-002    1.279394880529858E-016
  1.350000000000000E-002    1.107320870570182E-016
  1.360000000000000E-002    8.477272341389960E-017
  1.370000000000000E-002    5.069001121567302E-017
  1.380000000000000E-002    9.684864164028021E-018
  1.390000000000000E-002   -3.648243212919296E-017
  1.400000000000000E-002   -8.554139392159078E-017
  1.410000000000000E-002   -1.347974407542786E-016
  1.420000000000000E-002   -1.812534146520492E-016
  1.430000000000000E-002   -2.217626161125144E-016
  1.440000000000000E-002   -2.532069658565071E-016
  1.450000000000000E-002   -2.726920013247737E-016
  1.460000000000000E-002   -2.777481461080887E-016
  1.470000000000000E-002   -2.665265583411344E-016
  1.480000000000000E-002   -2.379770084736746E-016
  1.490000000000000E-002   -1.919948557832437E-016
  1.500000000000000E-002   -1.295251134372290E-016
  1.510000000000000E-002   -5.261297240425155E-017
  1.520000000000000E-002    3.560776719207464E-017
  1.530000000000000E-002    1.309937287808871E-016
  1.540000000000000E-002    2.285404175466814E-016
  1.550000000000000E-002    3.225979049399280E-016
  1.560000000000000E-002    4.071472272243628E-016
  1.570000000000000E-002    4.761269293920327E-016
  1.580000000000000E-002    5.237945746455260E-016
  1.590000000000000E-002    5.451054193010057E-016
  1.600000000000000E-002    5.360861137265399E-016
  1.610000000000000E-002    4.941816108457216E-016
  1.620000000000000E-002    4.185506546351701E-016
  1.630000000000000E-002    3.102876809365898E-016
  1.640000000000000E-002    1.725503610770608E-016
  1.650000000000000E-002    1.057591681967112E-017
  1.660000000000000E-002   -1.684257711022574E-016
  1.670000000000000E-002   -3.555078604999964E-016
  1.680000000000000E-002   -5.403495209671808E-016
  1.690000000000000E-002   -7.117370043651213E-016
  1.700000000000000E-002   -8.581454164463939E-016
  1.710000000000000E-002   -9.683963842480787E-016
  1.720000000000000E-002   -1.032359747320148E-015
  1.730000000000000E-002   -1.041660921530422E-015
  1.740000000000000E-002   -9.903529675327532E-016
  1.750000000000000E-002   -8.755092715786486E-016
  1.760000000000000E-002   -6.976933573444100E-016
  1.770000000000000E-002   -4.612659135939421E-016
  1.780000000000000E-002   -1.744949118024605E-016
  1.790000000000000E-002    1.505571941106243E-016
  1.800000000000000E-002    4.983843256520798E-016
  1.810000000000000E-002    8.506270970558184E-016
  1.820000000000000E-002    1.186891043679236E-015
  1.830000000000000E-002    1.485765162283855E-015
  1.840000000000000E-002    1.725999393393554E-015
  1.850000000000000E-002    1.887784815872877E-015
  1.860000000000000E-002    1.954071158337870E-015
  1.870000000000000E-002    1.911843451500957E-015