 -4.000000000000000E-002    0.000000000000000E+000
 -3.990000000000000E-002    0.000000000000000E+000
 -3.980000000000000E-002    0.000000000000000E+000
 -3.970000000000000E-002    0.000000000000000E+000
 -3.960000000000000E-002    0.000000000000000E+000
 -3.950000000000000E-002   -2.451416150977564E-021
 -3.940000000000000E-002   -2.534088026467642E-020
 -3.930000000000000E-002   -1.419949577087422E-019
 -3.920000000000000E-002   -5.711455641812869E-019
 -3.910000000000000E-002   -1.844104369963788E-018
 -3.900000000000000E-002   -5.070674151916957E-018
 -3.890000000000000E-002   -1.230697879041588E-017
 -3.880000000000000E-002   -2.699249819236899E-017
 -3.870000000000000E-002   -5.436819416234249E-017
 -3.860000000000000E-002   -1.017143878918839E-016
 -3.850000000000000E-002   -1.781656604439592E-016
 -3.840000000000000E-002   -2.937868131241859E-016
 -3.830000000000000E-002   -4.575568065254299E-016
 -3.820000000000000E-002   -6.739378877530378E-016
 -3.810000000000000E-002   -9.378406468766336E-016
 -3.800000000000000E-002   -1.228055603458489E-015
 -3.790000000000000E-002   -1.499618676967731E-015
 -3.780000000000000E-002   -1.676086421767967E-015
 -3.770000000000000E-002   -1.643264197462611E-015
 -3.760000000000000E-002   -1.246452471416058E-015
 -3.750000000000000E-002   -2.936400099137568E-016
 -3.740000000000000E-002    1.432893556629551E-015
 -3.730000000000000E-002    4.154497099584042E-015
 -3.720000000000000E-002    8.062480340296671E-015
 -3.710000000000000E-002    1.327329589502187E-014
 -3.700000000000000E-002    1.977503288039391E-014
 -3.690000000000000E-002    2.737006234029515E-014
 -3.680000000000000E-002    3.562110615858117E-014
 -3.670000000000000E-002    4.380999667447509E-014
 -3.660000000000000E-002    5.091962987655012E-014
 -3.650000000000000E-002    5.564956858600220E-014
 -3.640000000000000E-002    5.647413081309436E-014
 -3.630000000000000E-002    5.174828459338210E-014
 -3.620000000000000E-002    3.986150441255362E-014
 -3.610000000000000E-002    1.943310849848233E-014
 -3.600000000000000E-002   -1.046483567976129E-014
 -3.590000000000000E-002   -5.007829151797901E-014
 -3.580000000000000E-002   -9.876301158313070E-014
 -3.570000000000000E-002   -1.548283359487480E-013
 -3.560000000000000E-002   -2.154644069901717E-013
 -3.550000000000000E-002   -2.767803768862098E-013
 -3.540000000000000E-002   -3.339726174242523E-013
 -3.530000000000000E-002   -3.816292890493552E-013
 -3.520000000000000E-002   -4.141613935603057E-013
 -3.510000000000000E-002   -4.263323614115141E-013
 -3.500000000000000E-002   -4.138403755826573E-013
 -3.490000000000000E-002   -3.738920620357586E-013
 -3.480000000000000E-002   -3.056962389842751E-013
 -3.470000000000000E-002   -2.108031914242709E-013
 -3.460000000000000E-002   -9.322173159928855E-014
 -3.450000000000000E-002    4.073842536926525E-014
 -3.440000000000000E-002    1.829255267263830E-013
 -3.430000000000000E-002    3.240991779540311E-013
 -3.420000000000000E-002    4.549333415948209E-013
 -3.410000000000000E-002    5.671852571441252E-013
 -3.400000000000000E-002    6.549104671674972E-013
 -3.390000000000000E-002    7.155778252031892E-013
 -3.380000000000000E-002    7.509247149269167E-013
 -3.370000000000000E-002    7.673952274499331E-013
 -3.360000000000000E-002    7.760278766748419E-013
 -3.350000000000000E-002    7.916991289351284E-013
 -3.340000000000000E-002    8.316904072467255E-013
 -3.330000000000000E-002    9.136169777321192E-013
 -3.320000000000000E-002    1.052837938388143E-012
 -3.310000000000000E-002    1.259545998019138E-012
 -3.300000000000000E-002    1.535805616890887E-012
 -3.290000000000000E-002    1.872862189257433E-012
 -3.280000000000000E-002    2.249071101260433E-012
 -3.270000000000000E-002    2.628790986917581E-012
 -3.260000000000000E-002    2.962549201796251E-012
 -3.250000000000000E-002    3.188702079000751E-012
 -3.240000000000000E-002    3.236717416251896E-012
 -3.230000000000000E-002    3.032057175279772E-012
 -3.220000000000000E-002    2.502487194292414E-012
 -3.210000000000000E-002    1.585486493550451E-012
 -3.200000000000000E-002    2.362647895222078E-013
 -3.190000000000000E-002   -1.564222866046392E-012
 -3.180000000000000E-002   -3.801972931790486E-012
 -3.170000000000000E-002   -6.424099179886424E-012
 -3.160000000000000E-002   -9.335198518114450E-012
 -3.150000000000000E-002   -1.239658168683264E-011
 -3.140000000000000E-002   -1.542886733123918E-011
 -3.130000000000000E-002   -1.821827098843361E-011
 -3.120000000000000E-002   -2.052659334965249E-011
 -3.110000000000000E-002   -2.210470281800399E-011
 -3.100000000000000E-002   -2.270890474331162E-011
 -3.090000000000000E-002   -2.211936429638876E-011
 -3.080000000000000E-002   -2.015941179377899E-011
 -3.070000000000000E-002   -1.671438489522731E-011
 -3.060000000000000E-002   -1.174850019773946E-011
 -3.050000000000000E-002   -5.318251387020599E-012
 -3.040000000000000E-002    2.419107286846776E-012
 -3.030000000000000E-002    1.120322063771465E-011
 -3.020000000000000E-002    2.067531810374938E-011
 -3.010000000000000E-002    3.039032822117788E-011
 -3.000000000000000E-002    3.983642768423892E-011
 -2.990000000000000E-002    4.846124554519209E-011
 -2.980000000000000E-002    5.570358941102368E-011
 -2.970000000000000E-002    6.102883165612555E-011
 -2.960000000000000E-002    6.396576992913106E-011
 -2.950000000000000E-002    6.414235649443714E-011
 -2.940000000000000E-002    6.131763327341629E-011
 -2.930000000000000E-002    5.540723375668560E-011
 -2.920000000000000E-002    4.650006501500009E-011
 -2.910000000000000E-002    3.486432555700166E-011
 -2.900000000000000E-002    2.094165945349663E-011
 -2.890000000000000E-002    5.329083783141471E-012
 -2.880000000000000E-002   -1.125077421831753E-011
 -2.870000000000000E-002   -2.798966461131255E-011
 -2.860000000000000E-002   -4.404151303663415E-011
 -2.850000000000000E-002   -5.857508836603930E-011
 -2.840000000000000E-002   -7.082780101367458E-011
 -2.830000000000000E-002   -8.015688340983218E-011
 -2.820000000000000E-002   -8.608405812934231E-011
 -2.810000000000000E-002   -8.833032994521124E-011
 -2.800000000000000E-002   -8.683802706774318E-011
 -2.790000000000000E-002   -8.177816849260669E-011
 -2.780000000000000E-002   -7.354241023812655E-011
 -2.770000000000000E-002   -6.271981430498064E-011
 -2.760000000000000E-002   -5.006004777576453E-011
 -2.750000000000000E-002   -3.642544621687917E-011
 -2.740000000000000E-002   -2.273552261848805E-011
 -2.730000000000000E-002   -9.907684104287534E-012
 -2.720000000000000E-002    1.201482522108844E-012
 -2.710000000000000E-002    9.850405708533494E-012
 -2.700000000000000E-002    1.545866720616596E-011
 -2.690000000000000E-002    1.764227647585390E-011
 -2.680000000000000E-002    1.623637890540626E-011
 -2.670000000000000E-002    1.130485680647385E-011
 -2.660000000000000E-002    3.137347874990061E-012
 -2.650000000000000E-002   -7.764757140070222E-012
 -2.640000000000000E-002   -2.071088990726457E-011
 -2.630000000000000E-002   -3.484971822295968E-011
 -2.620000000000000E-002   -4.920038838673282E-011
 -2.610000000000000E-002   -6.268427994374312E-011
 -2.600000000000000E-002   -7.415523287083011E-011
 -2.590000000000000E-002   -8.242765755159067E-011
 -2.580000000000000E-002   -8.630291025256827E-011
 -2.570000000000000E-002   -8.459570657442497E-011
 -2.560000000000000E-002   -7.616337165871400E-011
 -2.550000000000000E-002   -5.994169707674628E-011
 -2.540000000000000E-002   -3.499128996022733E-011
 -2.530000000000000E-002   -5.580482658714685E-013
 -2.520000000000000E-002    4.384933814220408E-011
 -2.510000000000000E-002    9.836422434551770E-011
 -2.500000000000000E-002    1.626500940422712E-010
 -2.490000000000000E-002    2.357767818540305E-010
 -2.480000000000000E-002    3.160917526411086E-010
 -2.470000000000000E-002    4.010972116170023E-010
 -2.460000000000000E-002    4.873466149801312E-010
 -2.450000000000000E-002    5.703761554063134E-010
 -2.440000000000000E-002    6.446879360102125E-010
 -2.430000000000000E-002    7.038015204412014E-010
 -2.420000000000000E-002    7.403888298063964E-010
 -2.410000000000000E-002    7.465038709141797E-010
 -2.400000000000000E-002    7.139136803326173E-010
 -2.390000000000000E-002    6.345308546797053E-010
 -2.380000000000000E-002    5.009396376713658E-010
 -2.370000000000000E-002    3.070001962696299E-010
 -2.360000000000000E-002    4.850556555500039E-011
 -2.350000000000000E-002   -2.761403203710317E-010
 -2.340000000000000E-002   -6.652632813808468E-010
 -2.330000000000000E-002   -1.113322872729687E-009
 -2.320000000000000E-002   -1.610426824562812E-009
 -2.310000000000000E-002   -2.142002217907677E-009
 -2.300000000000000E-002   -2.688667061522909E-009
 -2.290000000000000E-002   -3.226339982978130E-009
 -2.280000000000000E-002   -3.726614492309773E-009
 -2.270000000000000E-002   -4.157413697213873E-009
 -2.260000000000000E-002   -4.483926665405718E-009
 -2.250000000000000E-002   -4.669811846144511E-009
 -2.240000000000000E-002   -4.678640090092775E-009
 -2.230000000000000E-002   -4.475530833250222E-009
 -2.220000000000000E-002   -4.028924251125931E-009
 -2.210000000000000E-002   -3.312423082721034E-009
 -2.200000000000000E-002   -2.306626075667637E-009
 -2.190000000000000E-002   -1.000873443197649E-009
 -2.180000000000000E-002    6.051753986156418E-010
 -2.170000000000000E-002    2.500210021541989E-009
 -2.160000000000000E-002    4.660255462834745E-009
 -2.150000000000000E-002    7.048035017559678E-009
 -2.140000000000000E-002    9.612764674442914E-009
 -2.130000000000000E-002    1.229041193466941E-008
 -2.120000000000000E-002    1.500444280188930E-008
 -2.110000000000000E-002    1.766707014097353E-008
 -2.100000000000000E-002    2.018099209893059E-008
 -2.090000000000000E-002    2.244161269092504E-008
 -2.080000000000000E-002    2.433970403980889E-008
 -2.070000000000000E-002    2.576448053316959E-008
 -2.060000000000000E-002    2.660702439965735E-008
 -2.050000000000000E-002    2.676401359300823E-008
 -2.040000000000000E-002    2.614167599067181E-008
 -2.030000000000000E-002    2.465989154390860E-008
 -2.020000000000000E-002    2.225636405623725E-008
 -2.010000000000000E-002    1.889077387139498E-008
 -2.000000000000000E-002    1.454878772613498E-008
 -1.990000000000000E-002    9.245866839609040E-009
 -1.980000000000000E-002    3.030722121645117E-009
 -1.970000000000000E-002   -4.011659066949603E-009
 -1.960000000000000E-002   -1.175752310942027E-008
 -1.950000000000000E-002   -2.004251501581217E-008
 -1.940000000000000E-002   -2.866052330242803E-008
 -1.930000000000000E-002   -3.736335790454176E-008
 -1.920000000000000E-002   -4.586121846863163E-008
 -1.910000000000000E-002   -5.382404353736638E-008
 -1.900000000000000E-002   -6.088366998028831E-008
 -1.890000000000000E-002   -6.663690326990760E-008
 -1.880000000000000E-002   -7.064925891202061E-008
 -1.870000000000000E-002   -7.245939068357123E-008
 -1.860000000000000E-002   -7.158422035703290E-008
 -1.850000000000000E-002   -6.752435700831682E-008
 -1.840000000000000E-002   -5.976992576454858E-008
 -1.830000000000000E-002   -4.780657160891684E-008
 -1.820000000000000E-002   -3.112145495692446E-008
 -1.810000000000000E-002   -9.209063353737056E-009
 -1.800000000000000E-002    1.842319096839459E-008
 -1.790000000000000E-002    5.224975164765888E-008
 -1.780000000000000E-002    9.272244272512041E-008
 -1.770000000000000E-002    1.402664941341077E-007
 -1.760000000000000E-002    1.952775939671906E-007
 -1.750000000000000E-002    2.581197417358671E-007
 -1.740000000000000E-002    3.291240067298252E-007
 -1.730000000000000E-002    4.085887693269821E-007
 -1.720000000000000E-002    4.967808575031606E-007
 -1.710000000000000E-002    5.939381810248074E-007
 -1.700000000000000E-002    7.002735648521163E-007
 -1.690000000000000E-002    8.159796911319987E-007
 -1.680000000000000E-002    9.412357918107604E-007
 -1.670000000000000E-002    1.076215090650976E-006
 -1.660000000000000E-002    1.221093499825941E-006
 -1.650000000000000E-002    1.376058910741675E-006
 -1.640000000000000E-002    1.541321611978002E-006
 -1.630000000000000E-002    1.717124250379322E-006
 -1.620000000000000E-002    1.903752569958850E-006
 -1.610000000000000E-002    2.101545015408416E-006
 -1.600000000000000E-002    2.310902053762378E-006
 -1.590000000000000E-002    2.532294040697104E-006
 -1.580000000000000E-002    2.766267916560065E-006
 -1.570000000000000E-002    3.013452366284803E-006
 -1.560000000000000E-002    3.274560641640618E-006
 -1.550000000000000E-002    3.550392398035276E-006
 -1.540000000000000E-002    3.841832643987353E-006
 -1.530000000000000E-002    4.149851096855427E-006
 -1.520000000000000E-002    4.475497427639007E-006
 -1.510000000000000E-002    4.819899325559849E-006
 -1.500000000000000E-002    5.184256302999067E-006
 -1.490000000000000E-002    5.569837235706598E-006
 -1.480000000000000E-002    5.977976838309582E-006
 -1.470000000000000E-002    6.410072985535878E-006
 -1.460000000000000E-002    6.867585993618746E-006
 -1.450000000000000E-002    7.352041033353163E-006
 -1.440000000000000E-002    7.865029522699029E-006
 -1.430000000000000E-002    8.408214756687705E-006
 -1.420000000000000E-002    8.983337651125088E-006
 -1.410000000000000E-002    9.592225450695079E-006
 -1.400000000000000E-002    1.023680087311361E-005
 -1.390000000000000E-002    1.091909010640472E-005
 -1.380000000000000E-002    1.164123138180901E-005
 -1.370000000000000E-002    1.240548693507298E-005
 -1.360000000000000E-002    1.321424477846223E-005
 -1.350000000000000E-002    1.407003225034959E-005
 -1.340000000000000E-002    1.497551568310675E-005
 -1.330000000000000E-002    1.593350622880161E-005
 -1.320000000000000E-002    1.694696349005681E-005
 -1.310000000000000E-002    1.801899636382652E-005
 -1.300000000000000E-002    1.915286681472672E-005
 -1.290000000000000E-002    2.035198679119980E-005
 -1.280000000000000E-002    2.161992638242140E-005
 -1.270000000000000E-002    2.296041333002422E-005
 -1.260000000000000E-002    2.437734334743199E-005
 -1.250000000000000E-002    2.587478211695152E-005
 -1.240000000000000E-002    2.745697536762026E-005
 -1.230000000000000E-002    2.912836337211755E-005
 -1.220000000000000E-002    3.089359267304652E-005
 -1.210000000000000E-002    3.275752875439601E-005
 -1.200000000000000E-002    3.472527312602167E-005
 -1.190000000000000E-002    3.680217051664475E-005
 -1.180000000000000E-002    3.899383935804422E-005
 -1.170000000000000E-002    4.130616942204465E-005
 -1.160000000000000E-002    4.374534008367153E-005
 -1.150000000000000E-002    4.631783480099086E-005
 -1.140000000000000E-002    4.903044233742643E-005
 -1.130000000000000E-002    5.189027322926114E-005
 -1.120000000000000E-002    5.490474763988962E-005
 -1.110000000000000E-002    5.808162893317470E-005
 -1.100000000000000E-002    6.142900294049442E-005
 -1.090000000000000E-002    6.495528688832403E-005
 -1.080000000000000E-002    6.866925500418933E-005
 -1.070000000000000E-002    7.258002719686885E-005
 -1.060000000000000E-002    7.669708959098079E-005
 -1.050000000000000E-002    8.103029926069731E-005
 -1.040000000000000E-002    8.558992397022170E-005
 -1.030000000000000E-002    9.038664332131790E-005
 -1.020000000000000E-002    9.543157874025216E-005
 -1.010000000000000E-002    1.007363161746315E-004
 -1.000000000000000E-002    1.063129461278121E-004
 -9.899999999999999E-003    1.121740911968933E-004
 -9.800000000000000E-003    1.183329181004635E-004
 -9.699999999999999E-003    1.248031833787123E-004
 -9.599999999999999E-003    1.315992602847391E-004
 -9.500000000000000E-003    1.387361660728693E-004
 -9.399999999999999E-003    1.462295755129211E-004
 -9.299999999999999E-003    1.540958531249070E-004
 -9.200000000000000E-003    1.623520758229455E-004
 -9.099999999999999E-003    1.710160448353195E-004
 -8.999999999999999E-003    1.801062860279494E-004
 -8.900000000000000E-003    1.896420749658505E-004
 -8.799999999999999E-003    1.996434917615178E-004
 -8.699999999999999E-003    2.101313810485349E-004
 -8.600000000000000E-003    2.211273724330972E-004
 -8.499999999999999E-003    2.326539188085178E-004
 -8.399999999999999E-003    2.447342787641203E-004
 -8.300000000000000E-003    2.573925769855699E-004
 -8.199999999999999E-003    2.706537987722957E-004
 -8.100000000000000E-003    2.845438116584112E-004
 -8.000000000000000E-003    2.990893759581715E-004
 -7.899999999999999E-003    3.143181825272193E-004
 -7.800000000000000E-003    3.302589024829557E-004
 -7.699999999999999E-003    3.469411479558588E-004
 -7.599999999999999E-003    3.643955519554406E-004
 -7.499999999999999E-003    3.826537976065834E-004
 -7.399999999999999E-003    4.017486235352732E-004
 -7.299999999999999E-003    4.217138549910719E-004
 -7.199999999999999E-003    4.425844374440318E-004
 -7.100000000000000E-003    4.643965043901374E-004
 -6.999999999999999E-003    4.871873882162325E-004
 -6.899999999999999E-003    5.109956163810090E-004
 -6.800000000000000E-003    5.358610116817243E-004
 -6.699999999999999E-003    5.618247570934669E-004
 -6.599999999999999E-003    5.889293205505684E-004
 -6.499999999999999E-003    6.172186384206044E-004
 -6.399999999999999E-003    6.467380438805817E-004
 -6.299999999999999E-003    6.775343596049558E-004
 -6.199999999999999E-003    7.096558914066330E-004
 -6.100000000000000E-003    7.431525028993393E-004
 -5.999999999999999E-003    7.780756547634611E-004
 -5.899999999999999E-003    8.144784118568627E-004
 -5.800000000000000E-003    8.524154784504373E-004
 -5.699999999999999E-003    8.919431023678486E-004
 -5.599999999999999E-003    9.331192944595310E-004
 -5.499999999999999E-003    9.760036601040330E-004
 -5.399999999999999E-003    1.020657559451864E-003
 -5.299999999999999E-003    1.067143889426538E-003
 -5.199999999999999E-003    1.115527413225864E-003
 -5.099999999999999E-003    1.165874545605456E-003
 -4.999999999999999E-003    1.218253388668292E-003
 -4.899999999999999E-003    1.272733800859709E-003
 -4.799999999999999E-003    1.329387206160738E-003
 -4.699999999999999E-003    1.388287070492233E-003
 -4.599999999999999E-003    1.449508399469447E-003
 -4.499999999999999E-003    1.513128153971544E-003
 -4.399999999999999E-003    1.579225055821392E-003
 -4.299999999999999E-003    1.647879685692430E-003
 -4.199999999999999E-003    1.719174561822857E-003
 -4.099999999999999E-003    1.793193947240767E-003
 -3.999999999999999E-003    1.870024084155840E-003
 -3.899999999999999E-003    1.949753170652189E-003
 -3.799999999999999E-003    2.032471455804572E-003
 -3.699999999999999E-003    2.118271016530147E-003
 -3.599999999999999E-003    2.207245978643905E-003
 -3.499999999999999E-003    2.299492456528692E-003
 -3.399999999999999E-003    2.395108661688251E-003
 -3.299999999999999E-003    2.494194586019838E-003
 -3.199999999999999E-003    2.596852307069532E-003
 -3.099999999999999E-003    2.703185812727199E-003
 -2.999999999999999E-003    2.813301088856361E-003
 -2.899999999999999E-003    2.927306244883728E-003
 -2.799999999999999E-003    3.045310989200692E-003
 -2.699999999999999E-003    3.167427110935158E-003
 -2.599999999999999E-003    3.293768078936023E-003
 -2.499999999999999E-003    3.424449036144254E-003
 -2.399999999999999E-003    3.559587322212998E-003
 -2.299999999999999E-003    3.699301353291981E-003
 -2.199999999999999E-003    3.843711817991471E-003
 -2.099999999999999E-003    3.992940288752882E-003
 -1.999999999999999E-003    4.147110333120915E-003
 -1.899999999999999E-003    4.306346951790599E-003
 -1.799999999999999E-003    4.470776325682654E-003
 -1.699999999999999E-003    4.640526014136500E-003
 -1.599999999999999E-003    4.815725032480470E-003
 -1.499999999999999E-003    4.996503299603083E-003
 -1.399999999999999E-003    5.182992043983031E-003
 -1.299999999999999E-003    5.375323580931612E-003
 -1.199999999999999E-003    5.573630875127512E-003
 -1.099999999999999E-003    5.778047560874086E-003
 -9.999999999999989E-004    5.988708755331531E-003
 -8.999999999999990E-004    6.205749718235996E-003
 -7.999999999999990E-004    6.429307121830851E-003
 -6.999999999999989E-004    6.659517398277713E-003
 -5.999999999999990E-004    6.896517159002163E-003
 -4.999999999999989E-004    7.140444337882860E-003
 -3.999999999999989E-004    7.391436079875259E-003
 -2.999999999999989E-004    7.649630213922382E-003
 -1.999999999999989E-004    7.915164360577686E-003
 -9.999999999999892E-005    8.188175677084715E-003
  1.084202172485504E-018    8.468800438070122E-003
  1.000000000000011E-004    8.757175437034425E-003
  2.000000000000011E-004    9.053435528033478E-003
  3.000000000000011E-004    9.357715423248897E-003
  4.000000000000011E-004    9.670148315888284E-003
  5.000000000000011E-004    9.990865893147207E-003
  6.000000000000011E-004    1.031999893630130E-002
  7.000000000000011E-004    1.065767547046341E-002
  8.000000000000011E-004    1.100402206327093E-002
  9.000000000000012E-004    1.135916305763053E-002
  1.000000000000001E-003    1.172321996207994E-002
  1.100000000000001E-003    1.209631211736334E-002
  1.200000000000001E-003    1.247855688256887E-002
  1.300000000000001E-003    1.287006712368345E-002
  1.400000000000001E-003    1.327095162908701E-002
  1.500000000000001E-003    1.368131772328472E-002
  1.600000000000001E-003    1.410126736621496E-002
  1.700000000000001E-003    1.453090039191386E-002
  1.800000000000001E-003    1.497030935105211E-002
  1.900000000000001E-003    1.541958454206849E-002
  2.000000000000001E-003    1.587881070837082E-002
  2.100000000000001E-003    1.634806636929264E-002
  2.200000000000001E-003    1.682742577100595E-002
  2.300000000000001E-003    1.731695714551828E-002
  2.400000000000001E-003    1.781672213041956E-002
  2.500000000000001E-003    1.832677574593178E-002
  2.600000000000001E-003    1.884716671566105E-002
  2.700000000000001E-003    1.937793809568664E-002
  2.800000000000001E-003    1.991912373059402E-002
  2.900000000000001E-003    2.047075004926362E-002
  3.000000000000001E-003    2.103283513645474E-002
  3.100000000000001E-003    2.160538924848085E-002
  3.200000000000001E-003    2.218841433949856E-002
  3.300000000000001E-003    2.278190365198894E-002
  3.400000000000001E-003    2.338584150531405E-002
  3.500000000000001E-003    2.400020206182818E-002
  3.600000000000001E-003    2.462494916679583E-002
  3.700000000000001E-003    2.526003380125865E-002
  3.800000000000001E-003    2.590540279064842E-002
  3.900000000000001E-003    2.656098653891638E-002
  4.000000000000001E-003    2.722670814422282E-002
  4.100000000000001E-003    2.790247472781966E-002
  4.200000000000001E-003    2.858818660878358E-002
  4.300000000000001E-003    2.928372712700863E-002
  4.400000000000001E-003    2.998896998835119E-002
  4.500000000000001E-003    3.070377331860365E-002
  4.600000000000002E-003    3.142798579965106E-002
  4.700000000000001E-003    3.216143908501771E-002
  4.800000000000001E-003    3.290395213767592E-002
  4.900000000000002E-003    3.365532865473866E-002
  5.000000000000001E-003    3.441535903398796E-002
  5.100000000000001E-003    3.518381876889257E-002
  5.200000000000001E-003    3.596046693193797E-002
  5.300000000000002E-003    3.674504898880767E-002
  5.400000000000001E-003    3.753729623551504E-002
  5.500000000000001E-003    3.833691912758654E-002
  5.600000000000002E-003    3.914361332761126E-002
  5.700000000000001E-003    3.995706143589812E-002
  5.800000000000001E-003    4.077692711623333E-002
  5.900000000000002E-003    4.160285733210564E-002
  6.000000000000001E-003    4.243447987749128E-002
  6.100000000000001E-003    4.327140703758754E-002
  6.200000000000002E-003    4.411323653452695E-002
  6.300000000000002E-003    4.495954572609412E-002
  6.400000000000001E-003    4.580989366739077E-002
  6.500000000000001E-003    4.666382243198865E-002
  6.600000000000002E-003    4.752085493693738E-002
  6.700000000000001E-003    4.838049719304156E-002
  6.800000000000001E-003    4.924223511026458E-002
  6.900000000000002E-003    5.010553865596490E-002
  7.000000000000001E-003    5.096985737978868E-002
  7.100000000000001E-003    5.183462807752236E-002
  7.200000000000002E-003    5.269926145049743E-002
  7.300000000000002E-003    5.356315267929616E-002
  7.400000000000001E-003    5.442567975656511E-002
  7.500000000000001E-003    5.528619904564903E-002
  7.600000000000002E-003    5.614405293472478E-002
  7.700000000000001E-003    5.699856361299620E-002
  7.800000000000001E-003    5.784903487151039E-002
  7.900000000000001E-003    5.869475210456947E-002
  8.000000000000002E-003    5.953498580634871E-002
  8.100000000000001E-003    6.036898407263467E-002
  8.200000000000001E-003    6.119598009387075E-002
  8.300000000000002E-003    6.201519177587853E-002
  8.400000000000001E-003    6.282581534340709E-002
  8.500000000000002E-003    6.362703357469794E-002
  8.600000000000002E-003    6.441801380289128E-002
  8.700000000000001E-003    6.519790925300364E-002
  8.800000000000002E-003    6.596585266101940E-002
  8.900000000000002E-003    6.672096010738704E-002
  9.000000000000001E-003    6.746234043233841E-002
  9.100000000000002E-003    6.818908589148358E-002
  9.200000000000002E-003    6.890026967279363E-002
  9.300000000000001E-003    6.959495896372757E-002
  9.400000000000002E-003    7.027219935309968E-002
  9.500000000000001E-003    7.093103674362131E-002
  9.600000000000001E-003    7.157048814237833E-002
  9.700000000000002E-003    7.218958002062001E-002
  9.800000000000001E-003    7.278731294884053E-002
  9.900000000000001E-003    7.336268792421818E-002
  1.000000000000000E-002    7.391468672330104E-002
  1.010000000000000E-002    7.444228460950991E-002
  1.020000000000000E-002    7.494446505634669E-002
  1.030000000000000E-002    7.542018301447984E-002
  1.040000000000000E-002    7.586839996471896E-002
  1.050000000000000E-002    7.628807678423642E-002
  1.060000000000000E-002    7.667815637123686E-002
  1.070000000000000E-002    7.703758349927720E-002
  1.080000000000000E-002    7.736530870493999E-002
  1.090000000000000E-002    7.766026961341098E-002
  1.100000000000000E-002    7.792141388375842E-002
  1.110000000000000E-002    7.814768176839237E-002
  1.120000000000000E-002    7.833801127112391E-002
  1.130000000000000E-002    7.849135856880537E-002
  1.140000000000000E-002    7.860666608564686E-002
  1.150000000000000E-002    7.868289094092548E-002
  1.160000000000000E-002    7.871899442857633E-002
  1.170000000000000E-002    7.871394268080142E-002
  1.180000000000000E-002    7.866670842418069E-002
  1.190000000000000E-002    7.857627577351427E-002
  1.200000000000000E-002    7.844164171137194E-002
  1.210000000000000E-002    7.826180806995461E-002
  1.220000000000000E-002    7.803579318037224E-002
  1.230000000000000E-002    7.776263371920959E-002
  1.240000000000000E-002    7.744137131201866E-002
  1.250000000000000E-002    7.707106535515398E-002
  1.260000000000000E-002    7.665080346259745E-002
  1.270000000000000E-002    7.617967595005842E-002
  1.280000000000000E-002    7.565680275970611E-002
  1.290000000000000E-002    7.508131809710711E-002
  1.300000000000000E-002    7.445238421277209E-002
  1.310000000000000E-002    7.376918035800156E-002
  1.320000000000000E-002    7.303091955913073E-002
  1.330000000000000E-002    7.223682921959197E-002
  1.340000000000000E-002    7.138616951321043E-002
  1.350000000000000E-002    7.047822859047129E-002
  1.360000000000000E-002    6.951232226475537E-002
  1.370000000000000E-002    6.848779732336183E-002
  1.380000000000000E-002    6.740403705753324E-002
  1.390000000000000E-002    6.626044548791762E-002
  1.400000000000000E-002    6.505646431199702E-002
  1.410000000000000E-002    6.379157651031103E-002
  1.420000000000000E-002    6.246529859589128E-002
  1.430000000000000E-002    6.107717988816479E-002
  1.440000000000000E-002    5.962680452722528E-002
  1.450000000000000E-002    5.811380699871720E-002
  1.460000000000000E-002    5.653785598939992E-002
  1.470000000000000E-002    5.489865869657869E-002
  1.480000000000000E-002    5.319596768387428E-002
  1.490000000000000E-002    5.142957441613767E-002
  1.500000000000000E-002    4.959931881719487E-002
  1.510000000000000E-002    4.770508315253597E-002
  1.520000000000000E-002    4.574679359647590E-002
  1.530000000000000E-002    4.372442182268439E-002
  1.540000000000000E-002    4.163799061540374E-002
  1.550000000000000E-002    3.948756671348097E-002
  1.560000000000000E-002    3.727326508859170E-002
  1.570000000000000E-002    3.499525190587997E-002
  1.580000000000000E-002    3.265374077521823E-002
  1.590000000000000E-002    3.024899421444584E-002
  1.600000000000000E-002    2.778132627793764E-002
  1.610000000000000E-002    2.525110013489660E-002
  1.620000000000000E-002    2.265873239367394E-002
  1.630000000000000E-002    2.000469219471852E-002
  1.640000000000000E-002    1.728949569299715E-002
  1.650000000000000E-002    1.451371163985373E-002
  1.660000000000000E-002    1.167796633774425E-002
  1.670000000000000E-002    8.782931711703097E-003
  1.680000000000000E-002    5.829336486671442E-003
  1.690000000000000E-002    2.817958338218476E-003
  1.700000000000000E-002   -2.503717492699517E-004
  1.710000000000000E-002   -3.374769312457073E-003
  1.720000000000000E-002   -6.554298339406535E-003
  1.730000000000000E-002   -9.787971857153448E-003
  1.740000000000000E-002   -1.307475121746465E-002
  1.750000000000000E-002   -1.641354490090001E-002
  1.760000000000000E-002   -1.980321197574961E-002
  1.770000000000000E-002   -2.324256172552046E-002
  1.780000000000000E-002   -2.673035033967716E-002
  1.790000000000000E-002   -3.026528420871361E-002
  1.800000000000000E-002   -3.384602433831181E-002
  1.810000000000000E-002   -3.747118125474277E-002
  1.820000000000000E-002   -4.113931770091593E-002
  1.830000000000000E-002   -4.484895070687062E-002
  1.840000000000000E-002   -4.859854690438409E-002
  1.850000000000000E-002   -5.238653627622870E-002
  1.860000000000000E-002   -5.621129530003295E-002
  1.870000000000000E-002   -6.007116539472461E-002