 -4.000000000000000E-002    0.000000000000000E+000
 -3.990000000000000E-002    0.000000000000000E+000
 -3.980000000000000E-002    0.000000000000000E+000
 -3.970000000000000E-002    0.000000000000000E+000
 -3.960000000000000E-002    0.000000000000000E+000
 -3.950000000000000E-002    0.000000000000000E+000
 -3.940000000000000E-002    0.000000000000000E+000
 -3.930000000000000E-002    0.000000000000000E+000
 -3.920000000000000E-002    0.000000000000000E+000
 -3.910000000000000E-002    0.000000000000000E+000
 -3.900000000000000E-002    0.000000000000000E+000
 -3.890000000000000E-002    0.000000000000000E+000
 -3.880000000000000E-002    0.000000000000000E+000
 -3.870000000000000E-002    0.000000000000000E+000
 -3.860000000000000E-002    0.000000000000000E+000
 -3.850000000000000E-002    0.000000000000000E+000
 -3.840000000000000E-002    0.000000000000000E+000
 -3.830000000000000E-002    0.000000000000000E+000
 -3.820000000000000E-002    0.000000000000000E+000
 -3.810000000000000E-002    0.000000000000000E+000
 -3.800000000000000E-002    0.000000000000000E+000
 -3.790000000000000E-002    0.000000000000000E+000
 -3.780000000000000E-002    0.000000000000000E+000
 -3.770000000000000E-002    0.000000000000000E+000
 -3.760000000000000E-002    0.000000000000000E+000
 -3.750000000000000E-002    0.000000000000000E+000
 -3.740000000000000E-002    0.000000000000000E+000
 -3.730000000000000E-002    0.000000000000000E+000
 -3.720000000000000E-002    0.000000000000000E+000
 -3.710000000000000E-002    0.000000000000000E+000
 -3.700000000000000E-002    0.000000000000000E+000
 -3.690000000000000E-002    0.000000000000000E+000
 -3.680000000000000E-002    0.000000000000000E+000
 -3.670000000000000E-002    0.000000000000000E+000
 -3.660000000000000E-002    0.000000000000000E+000
 -3.650000000000000E-002    0.000000000000000E+000
 -3.640000000000000E-002    0.000000000000000E+000
 -3.630000000000000E-002    0.000000000000000E+000
 -3.620000000000000E-002    0.000000000000000E+000
 -3.610000000000000E-002    0.000000000000000E+000
 -3.600000000000000E-002    0.000000000000000E+000
 -3.590000000000000E-002    0.000000000000000E+000
 -3.580000000000000E-002    0.000000000000000E+000
 -3.570000000000000E-002    0.000000000000000E+000
 -3.560000000000000E-002    0.000000000000000E+000
 -3.550000000000000E-002    0.000000000000000E+000
 -3.540000000000000E-002    0.000000000000000E+000
 -3.530000000000000E-002    0.000000000000000E+000
 -3.520000000000000E-002    0.000000000000000E+000
 -3.510000000000000E-002    0.000000000000000E+000
 -3.500000000000000E-002    0.000000000000000E+000
 -3.490000000000000E-002    0.000000000000000E+000
 -3.480000000000000E-002    0.000000000000000E+000
 -3.470000000000000E-002    0.000000000000000E+000
 -3.460000000000000E-002    0.000000000000000E+000
 -3.450000000000000E-002    0.000000000000000E+000
 -3.440000000000000E-002    0.000000000000000E+000
 -3.430000000000000E-002    0.000000000000000E+000
 -3.420000000000000E-002    0.000000000000000E+000
 -3.410000000000000E-002    0.000000000000000E+000
 -3.400000000000000E-002    0.000000000000000E+000
 -3.390000000000000E-002    0.000000000000000E+000
 -3.380000000000000E-002    0.000000000000000E+000
 -3.370000000000000E-002    0.000000000000000E+000
 -3.360000000000000E-002    0.000000000000000E+000
 -3.350000000000000E-002    0.000000000000000E+000
 -3.340000000000000E-002    0.000000000000000E+000
 -3.330000000000000E-002    0.000000000000000E+000
 -3.320000000000000E-002    0.000000000000000E+000
 -3.310000000000000E-002    0.000000000000000E+000
 -3.300000000000000E-002    0.000000000000000E+000
 -3.290000000000000E-002    0.000000000000000E+000
 -3.280000000000000E-002    0.000000000000000E+000
 -3.270000000000000E-002    0.000000000000000E+000
 -3.260000000000000E-002    0.000000000000000E+000
 -3.250000000000000E-002    0.000000000000000E+000
 -3.240000000000000E-002    0.000000000000000E+000
 -3.230000000000000E-002    0.000000000000000E+000
 -3.220000000000000E-002    0.000000000000000E+000
 -3.210000000000000E-002    0.000000000000000E+000
 -3.200000000000000E-002    0.000000000000000E+000
 -3.190000000000000E-002    0.000000000000000E+000
 -3.180000000000000E-002    0.000000000000000E+000
 -3.170000000000000E-002    0.000000000000000E+000
 -3.160000000000000E-002    0.000000000000000E+000
 -3.150000000000000E-002    0.000000000000000E+000
 -3.140000000000000E-002    0.000000000000000E+000
 -3.130000000000000E-002    0.000000000000000E+000
 -3.120000000000000E-002    0.000000000000000E+000
 -3.110000000000000E-002    0.000000000000000E+000
 -3.100000000000000E-002    0.000000000000000E+000
 -3.090000000000000E-002    0.000000000000000E+000
 -3.080000000000000E-002    0.000000000000000E+000
 -3.070000000000000E-002    0.000000000000000E+000
 -3.060000000000000E-002    0.000000000000000E+000
 -3.050000000000000E-002    0.000000000000000E+000
 -3.040000000000000E-002    0.000000000000000E+000
 -3.030000000000000E-002    0.000000000000000E+000
 -3.020000000000000E-002    0.000000000000000E+000
 -3.010000000000000E-002    0.000000000000000E+000
 -3.000000000000000E-002    0.000000000000000E+000
 -2.990000000000000E-002    0.000000000000000E+000
 -2.980000000000000E-002    0.000000000000000E+000
 -2.970000000000000E-002    0.000000000000000E+000
 -2.960000000000000E-002    0.000000000000000E+000
 -2.950000000000000E-002    0.000000000000000E+000
 -2.940000000000000E-002    0.000000000000000E+000
 -2.930000000000000E-002    0.000000000000000E+000
 -2.920000000000000E-002    0.000000000000000E+000
 -2.910000000000000E-002    0.000000000000000E+000
 -2.900000000000000E-002    0.000000000000000E+000
 -2.890000000000000E-002    0.000000000000000E+000
 -2.880000000000000E-002    0.000000000000000E+000
 -2.870000000000000E-002    0.000000000000000E+000
 -2.860000000000000E-002    0.000000000000000E+000
 -2.850000000000000E-002    0.000000000000000E+000
 -2.840000000000000E-002    0.000000000000000E+000
 -2.830000000000000E-002    0.000000000000000E+000
 -2.820000000000000E-002    0.000000000000000E+000
 -2.810000000000000E-002    0.000000000000000E+000
 -2.800000000000000E-002    0.000000000000000E+000
 -2.790000000000000E-002    0.000000000000000E+000
 -2.780000000000000E-002    0.000000000000000E+000
 -2.770000000000000E-002    0.000000000000000E+000
 -2.760000000000000E-002    0.000000000000000E+000
 -2.750000000000000E-002    0.000000000000000E+000
 -2.740000000000000E-002    0.000000000000000E+000
 -2.730000000000000E-002    0.000000000000000E+000
 -2.720000000000000E-002    0.000000000000000E+000
 -2.710000000000000E-002    0.000000000000000E+000
 -2.700000000000000E-002    0.000000000000000E+000
 -2.690000000000000E-002    0.000000000000000E+000
 -2.680000000000000E-002    0.000000000000000E+000
 -2.670000000000000E-002    0.000000000000000E+000
 -2.660000000000000E-002    0.000000000000000E+000
 -2.650000000000000E-002    0.000000000000000E+000
 -2.640000000000000E-002    0.000000000000000E+000
 -2.630000000000000E-002    0.000000000000000E+000
 -2.620000000000000E-002    0.000000000000000E+000
 -2.610000000000000E-002    0.000000000000000E+000
 -2.600000000000000E-002    0.000000000000000E+000
 -2.590000000000000E-002    0.000000000000000E+000
 -2.580000000000000E-002    0.000000000000000E+000
 -2.570000000000000E-002    0.000000000000000E+000
 -2.560000000000000E-002    0.000000000000000E+000
 -2.550000000000000E-002    0.000000000000000E+000
 -2.540000000000000E-002    0.000000000000000E+000
 -2.530000000000000E-002    0.000000000000000E+000
 -2.520000000000000E-002    0.000000000000000E+000
 -2.510000000000000E-002    0.000000000000000E+000
 -2.500000000000000E-002    0.000000000000000E+000
 -2.490000000000000E-002    0.000000000000000E+000
 -2.480000000000000E-002    0.000000000000000E+000
 -2.470000000000000E-002    0.000000000000000E+000
 -2.460000000000000E-002    0.000000000000000E+000
 -2.450000000000000E-002    0.000000000000000E+000
 -2.440000000000000E-002    0.000000000000000E+000
 -2.430000000000000E-002    0.000000000000000E+000
 -2.420000000000000E-002    0.000000000000000E+000
 -2.410000000000000E-002    0.000000000000000E+000
 -2.400000000000000E-002    0.000000000000000E+000
 -2.390000000000000E-002    0.000000000000000E+000
 -2.380000000000000E-002    0.000000000000000E+000
 -2.370000000000000E-002    0.000000000000000E+000
 -2.360000000000000E-002    0.000000000000000E+000
 -2.350000000000000E-002    0.000000000000000E+000
 -2.340000000000000E-002    0.000000000000000E+000
 -2.330000000000000E-002    0.000000000000000E+000
 -2.320000000000000E-002    0.000000000000000E+000
 -2.310000000000000E-002    0.000000000000000E+000
 -2.300000000000000E-002    0.000000000000000E+000
 -2.290000000000000E-002    0.000000000000000E+000
 -2.280000000000000E-002    0.000000000000000E+000
 -2.270000000000000E-002    0.000000000000000E+000
 -2.260000000000000E-002    0.000000000000000E+000
 -2.250000000000000E-002    0.000000000000000E+000
 -2.240000000000000E-002    0.000000000000000E+000
 -2.230000000000000E-002    0.000000000000000E+000
 -2.220000000000000E-002    0.000000000000000E+000
 -2.210000000000000E-002    0.000000000000000E+000
 -2.200000000000000E-002    0.000000000000000E+000
 -2.190000000000000E-002    0.000000000000000E+000
 -2.180000000000000E-002    0.000000000000000E+000
 -2.170000000000000E-002    0.000000000000000E+000
 -2.160000000000000E-002    0.000000000000000E+000
 -2.150000000000000E-002    0.000000000000000E+000
 -2.140000000000000E-002    0.000000000000000E+000
 -2.130000000000000E-002    0.000000000000000E+000
 -2.120000000000000E-002    0.000000000000000E+000
 -2.110000000000000E-002    0.000000000000000E+000
 -2.100000000000000E-002    0.000000000000000E+000
 -2.090000000000000E-002    0.000000000000000E+000
 -2.080000000000000E-002    0.000000000000000E+000
 -2.070000000000000E-002    0.000000000000000E+000
 -2.060000000000000E-002    0.000000000000000E+000
 -2.050000000000000E-002    0.000000000000000E+000
 -2.040000000000000E-002   -6.414635304221270E-048
 -2.030000000000000E-002   -1.282927060844254E-047
 -2.020000000000000E-002   -2.565854121688508E-047
 -2.010000000000000E-002   -5.793193039233079E-047
 -2.000000000000000E-002   -8.379068426355523E-047
 -1.990000000000000E-002   -1.096494381347797E-046
 -1.980000000000000E-002   -1.677815811814498E-046
 -1.970000000000000E-002   -1.938405477070136E-046
 -1.960000000000000E-002   -2.099970025479917E-046
 -1.950000000000000E-002   -2.004949161720847E-046
 -1.940000000000000E-002   -7.133834786770663E-048
 -1.930000000000000E-002    2.187008484283285E-046
 -1.920000000000000E-002    6.186922276225882E-046
 -1.910000000000000E-002    1.313502178972032E-045
 -1.900000000000000E-002    2.279288993826974E-045
 -1.890000000000000E-002    3.374369578038039E-045
 -1.880000000000000E-002    4.583415544426540E-045
 -1.870000000000000E-002    6.327039059756630E-045
 -1.860000000000000E-002    7.720757180328254E-045
 -1.850000000000000E-002    7.725914245779332E-045
 -1.840000000000000E-002    6.518519949851178E-045
 -1.830000000000000E-002    3.667955433944964E-045
 -1.820000000000000E-002   -7.303354838562788E-046
 -1.810000000000000E-002   -8.171545938599192E-045
 -1.800000000000000E-002   -1.920775752077077E-044
 -1.790000000000000E-002   -3.344171717378870E-044
 -1.780000000000000E-002   -5.029318223875290E-044
 -1.770000000000000E-002   -6.855599032842694E-044
 -1.760000000000000E-002   -8.681719038707002E-044
 -1.750000000000000E-002   -1.018332682697988E-043
 -1.740000000000000E-002   -1.097221986272782E-043
 -1.730000000000000E-002   -1.052994886801867E-043
 -1.720000000000000E-002   -8.306768287193830E-044
 -1.710000000000000E-002   -3.768991822325119E-044
 -1.700000000000000E-002    3.791173434267981E-044
 -1.690000000000000E-002    1.484071324555588E-043
 -1.680000000000000E-002    2.950827022445617E-043
 -1.670000000000000E-002    4.749300874604160E-043
 -1.660000000000000E-002    6.794167167072411E-043
 -1.650000000000000E-002    8.927545690237506E-043
 -1.640000000000000E-002    1.090112131801759E-042
 -1.630000000000000E-002    1.235844264245432E-042
 -1.620000000000000E-002    1.284553574096934E-042
 -1.610000000000000E-002    1.185016445667488E-042
 -1.600000000000000E-002    8.793807667761071E-043
 -1.590000000000000E-002    3.123196616605409E-043
 -1.580000000000000E-002   -5.632090733516880E-043
 -1.570000000000000E-002   -1.774433365620787E-042
 -1.560000000000000E-002   -3.319335401228892E-042
 -1.550000000000000E-002   -5.153252153433102E-042
 -1.540000000000000E-002   -7.177485030951256E-042
 -1.530000000000000E-002   -9.231572585148401E-042
 -1.520000000000000E-002   -1.108470260621850E-041
 -1.510000000000000E-002   -1.243570686083910E-041
 -1.500000000000000E-002   -1.292345944855602E-041
 -1.490000000000000E-002   -1.213556743056661E-041
 -1.480000000000000E-002   -9.639756782054758E-042
 -1.470000000000000E-002   -5.011470533293480E-042
 -1.460000000000000E-002    2.118988757858688E-042
 -1.450000000000000E-002    1.202063690963972E-041
 -1.440000000000000E-002    2.480367862995513E-041
 -1.430000000000000E-002    4.035886615233326E-041
 -1.420000000000000E-002    5.829435248015302E-041
 -1.410000000000000E-002    7.786532125249388E-041
 -1.400000000000000E-002    9.790115241580867E-041
 -1.390000000000000E-002    1.167193327204451E-040
 -1.380000000000000E-002    1.320376663299715E-040
 -1.370000000000000E-002    1.408775743163099E-040
 -1.360000000000000E-002    1.394692164328544E-040
 -1.350000000000000E-002    1.231860908503757E-040
 -1.340000000000000E-002    8.653033373670377E-041
 -1.330000000000000E-002    2.324375613573798E-041
 -1.320000000000000E-002   -7.340023484481674E-041
 -1.310000000000000E-002   -2.100043860927151E-040
 -1.300000000000000E-002   -3.920743746951376E-040
 -1.290000000000000E-002   -6.225301691429588E-040
 -1.280000000000000E-002   -8.996459005724952E-040
 -1.270000000000000E-002   -1.214394407504915E-039
 -1.260000000000000E-002   -1.547273379256306E-039
 -1.250000000000000E-002   -1.864857180370007E-039
 -1.240000000000000E-002   -2.116490477399178E-039
 -1.230000000000000E-002   -2.231774148360976E-039
 -1.220000000000000E-002   -2.119738404563732E-039
 -1.210000000000000E-002   -1.670818771483729E-039
 -1.200000000000000E-002   -7.628796229564115E-040
 -1.190000000000000E-002    7.274246782923436E-040
 -1.180000000000000E-002    2.906854100841767E-039
 -1.170000000000000E-002    5.840716302792944E-039
 -1.160000000000000E-002    9.521047946873084E-039
 -1.150000000000000E-002    1.382913391957097E-038
 -1.140000000000000E-002    1.849513754673270E-038
 -1.130000000000000E-002    2.305943268624107E-038
 -1.120000000000000E-002    2.684223062743172E-038
 -1.110000000000000E-002    2.893000468161009E-038
 -1.100000000000000E-002    2.818885330144283E-038
 -1.090000000000000E-002    2.331579923535486E-038
 -1.080000000000000E-002    1.293875022077376E-038
 -1.070000000000000E-002   -4.226083391814014E-039
 -1.060000000000000E-002   -2.915455192587984E-038
 -1.050000000000000E-002   -6.223442253907107E-038
 -1.040000000000000E-002   -1.029355117164491E-037
 -1.030000000000000E-002   -1.494525671693335E-037
 -1.020000000000000E-002   -1.983570608347076E-037
 -1.010000000000000E-002   -2.443088823282661E-037
 -1.000000000000000E-002   -2.798934841576999E-037
 -9.899999999999999E-003   -2.956621603267037E-037
 -9.800000000000000E-003   -2.804603260424448E-037
 -9.699999999999999E-003   -2.221277696495697E-037
 -9.599999999999999E-003   -1.086428126191774E-037
 -9.500000000000000E-003    7.024453544025233E-038
 -9.399999999999999E-003    3.208897027421043E-037
 -9.299999999999999E-003    6.432031028626090E-037
 -9.200000000000000E-003    1.027817680521672E-036
 -9.099999999999999E-003    1.453218537370041E-036
 -8.999999999999999E-003    1.883190571976303E-036
 -8.900000000000000E-003    2.265051722831716E-036
 -8.799999999999999E-003    2.529240863640621E-036
 -8.699999999999999E-003    2.590898860315473E-036
 -8.600000000000000E-003    2.354098695301566E-036
 -8.499999999999999E-003    1.719321045456602E-036
 -8.399999999999999E-003    5.946057014845139E-037
 -8.300000000000000E-003   -1.089480894858694E-036
 -8.199999999999999E-003   -3.361359234222220E-036
 -8.100000000000000E-003   -6.187311451932130E-036
 -8.000000000000000E-003   -9.449317324513530E-036
 -7.899999999999999E-003   -1.292427058592425E-035
 -7.800000000000000E-003   -1.626784053495043E-035
 -7.699999999999999E-003   -1.900702671728918E-035
 -7.599999999999999E-003   -2.054603184697149E-035
 -7.499999999999999E-003   -2.019028572036996E-035
 -7.399999999999999E-003   -1.719313059040118E-035
 -7.299999999999999E-003   -1.082859119647599E-035
 -7.199999999999999E-003   -4.917042779443423E-037
 -7.100000000000000E-003    1.417511670022818E-035
 -6.999999999999999E-003    3.313520743348711E-035
 -6.899999999999999E-003    5.580072239821982E-035
 -6.800000000000000E-003    8.088172262378161E-035
 -6.699999999999999E-003    1.062630484854916E-034
 -6.599999999999999E-003    1.289360500819102E-034
 -6.499999999999999E-003    1.450159716572528E-034
 -6.399999999999999E-003    1.498771399324372E-034
 -6.299999999999999E-003    1.384356860812846E-034
 -6.199999999999999E-003    1.056023885691635E-034
 -6.100000000000000E-003    4.691520348972746E-035
 -5.999999999999999E-003   -4.065814871295924E-035
 -5.899999999999999E-003   -1.577827288383532E-034
 -5.800000000000000E-003   -3.017502110299354E-034
 -5.699999999999999E-003   -4.655042371735109E-034
 -5.599999999999999E-003   -6.368322766103146E-034
 -5.499999999999999E-003   -7.978891710738707E-034
 -5.399999999999999E-003   -9.252385953548021E-034
 -5.299999999999999E-003   -9.906030915577281E-034
 -5.199999999999999E-003   -9.624964644564607E-034
 -5.099999999999999E-003   -8.088660980922063E-034
 -4.999999999999999E-003   -5.007930326262662E-034
 -4.899999999999999E-003   -1.718468198189805E-035
 -4.799999999999999E-003    6.497545861752456E-034
 -4.699999999999999E-003    1.488662477676812E-033
 -4.599999999999999E-003    2.463347192734955E-033
 -4.499999999999999E-003    3.508068167443193E-033
 -4.399999999999999E-003    4.524690481388205E-033
 -4.299999999999999E-003    5.382734113640032E-033
 -4.199999999999999E-003    5.923345622470676E-033
 -4.099999999999999E-003    5.968105655304558E-033
 -3.999999999999999E-003    5.333316170199080E-033
 -3.899999999999999E-003    3.849971231618125E-033
 -3.799999999999999E-003    1.388995286524601E-033
 -3.699999999999999E-003   -2.109444970138503E-033
 -3.599999999999999E-003   -6.604655995632654E-033
 -3.499999999999999E-003   -1.192521261926665E-032
 -3.399999999999999E-003   -1.774380535810832E-032
 -3.299999999999999E-003   -2.356184114639129E-032
 -3.199999999999999E-003   -2.870894338915100E-032
 -3.099999999999999E-003   -3.236242557048085E-032
 -2.999999999999999E-003   -3.359116548351831E-032
 -2.899999999999999E-003   -3.142687660645890E-032
 -2.799999999999999E-003   -2.496352890675121E-032
 -2.699999999999999E-003   -1.348263057120232E-032
 -2.599999999999999E-003    3.401728640837328E-033
 -2.499999999999999E-003    2.558843351643986E-032
 -2.399999999999999E-003    5.234033875944280E-032
 -2.299999999999999E-003    8.215970070910941E-032
 -2.199999999999999E-003    1.127102509626662E-031
 -2.099999999999999E-003    1.408098532441494E-031
 -1.999999999999999E-003    1.625171624364778E-031
 -1.899999999999999E-003    1.733321904490838E-031
 -1.799999999999999E-003    1.685240364783881E-031
 -1.699999999999999E-003    1.435884752905916E-031
 -1.599999999999999E-003    9.482428419520013E-032
 -1.499999999999999E-003    2.000003676161460E-032
 -1.399999999999999E-003   -8.093559274555782E-032
 -1.299999999999999E-003   -2.051666799074122E-031
 -1.199999999999999E-003   -3.464300169438861E-031
 -1.099999999999999E-003   -4.946400193396608E-031
 -9.999999999999989E-004   -6.358227957274038E-031
 -8.999999999999990E-004   -7.524602345327544E-031
 -7.999999999999990E-004   -8.243295964531165E-031
 -6.999999999999989E-004   -8.298942666146136E-031
 -5.999999999999990E-004   -7.482567346105616E-031
 -4.999999999999989E-004   -5.616257086770308E-031
 -3.999999999999989E-004   -2.581782679176456E-031
 -2.999999999999989E-004    1.648802943396556E-031
 -1.999999999999989E-004    6.983355494884020E-031
 -9.999999999999892E-005    1.318410122798409E-030
  1.084202172485504E-018    1.985038404673894E-030
  1.000000000000011E-004    2.641397613757447E-030
  2.000000000000011E-004    3.215106164842551E-030
  3.000000000000011E-004    3.621437537051584E-030
  4.000000000000011E-004    3.768777936965263E-030
  5.000000000000011E-004    3.566378233989372E-030
  6.000000000000011E-004    2.934214464843538E-030
  7.000000000000011E-004    1.814496636721620E-030
  8.000000000000011E-004    1.840577560808514E-031
  9.000000000000012E-004   -1.933452542926351E-030
  1.000000000000001E-003   -4.456916125302772E-030
  1.100000000000001E-003   -7.240195050466816E-030
  1.200000000000001E-003   -1.006932898664875E-029
  1.300000000000001E-003   -1.266607221720978E-029
  1.400000000000001E-003   -1.469912754252845E-029
  1.500000000000001E-003   -1.580398078471688E-029
  1.600000000000001E-003   -1.561156500561804E-029
  1.700000000000001E-003   -1.378514208962586E-029
  1.800000000000001E-003   -1.006372654858280E-029
  1.900000000000001E-003   -4.309285051926364E-030
  2.000000000000001E-003    3.446202897546932E-030
  2.100000000000001E-003    1.295874725927248E-029
  2.200000000000001E-003    2.374107564481320E-029
  2.300000000000001E-003    3.504811090063964E-029
  2.400000000000001E-003    4.588506582507701E-029
  2.500000000000001E-003    5.504314393781319E-029
  2.600000000000001E-003    6.116628365726485E-029
  2.700000000000001E-003    6.285007057224312E-029
  2.800000000000001E-003    5.877088763224631E-029
  2.900000000000001E-003    4.783977664161139E-029
  3.000000000000001E-003    2.937161001870916E-029
  3.100000000000001E-003    3.256194896914267E-030
  3.200000000000001E-003   -2.988555312942338E-029
  3.300000000000001E-003   -6.857989813885113E-029
  3.400000000000001E-003   -1.104338433636689E-028
  3.500000000000001E-003   -1.521443179523053E-028
  3.600000000000001E-003   -1.896005441666253E-028
  3.700000000000001E-003   -2.180920629054005E-028
  3.800000000000001E-003   -2.326271241256688E-028
  3.900000000000001E-003   -2.283563033303374E-028
  4.000000000000001E-003   -2.010841663701117E-028
  4.100000000000001E-003   -1.478390597087773E-028
  4.200000000000001E-003   -6.745798066176691E-029
  4.300000000000001E-003    3.886785457072820E-029
  4.400000000000001E-003    1.671504065210590E-028
  4.500000000000001E-003    3.103328652767495E-028
  4.600000000000002E-003    4.582552733557925E-028
  4.700000000000001E-003    5.979158085885072E-028
  4.800000000000001E-003    7.140703763661397E-028
  4.900000000000002E-003    7.901888530476371E-028
  5.000000000000001E-003    8.097554149451205E-028
  5.100000000000001E-003    7.578632184770966E-028
  5.200000000000001E-003    6.230137191985013E-028
  5.300000000000002E-003    3.989906457987159E-028
  5.400000000000001E-003    8.664213844815764E-029
  5.500000000000001E-003   -3.046227239404722E-028
  5.600000000000002E-003   -7.558320407311609E-028
  5.700000000000001E-003   -1.238148565741318E-027
  5.800000000000001E-003   -1.713449557607891E-027
  5.900000000000002E-003   -2.135922080706082E-027
  6.000000000000001E-003   -2.454739649589872E-027
  6.100000000000001E-003   -2.617791231975308E-027
  6.200000000000002E-003   -2.576328638436489E-027
  6.300000000000002E-003   -2.290277376492994E-027
  6.400000000000001E-003   -1.733839525825892E-027
  6.500000000000001E-003   -9.009141323286480E-028
  6.600000000000002E-003    1.902258982248316E-028
  6.700000000000001E-003    1.493596687365980E-027
  6.800000000000001E-003    2.934101738417791E-027
  6.900000000000002E-003    4.408591437798304E-027
  7.000000000000001E-003    5.789778617473931E-027
  7.100000000000001E-003    6.933208496232276E-027
  7.200000000000002E-003    7.687230362805609E-027
  7.300000000000002E-003    7.905615552758557E-027
  7.400000000000001E-003    7.462142910926496E-027
  7.500000000000001E-003    6.266160541857384E-027
  7.600000000000002E-003    4.277832519164431E-027
  7.700000000000001E-003    1.521582201153028E-027
  7.800000000000001E-003   -1.903886641945569E-027
  7.900000000000001E-003   -5.820573468849840E-027
  8.000000000000002E-003   -9.972574945489878E-027
  8.100000000000001E-003   -1.403495660824770E-026
  8.200000000000001E-003   -1.763063178855325E-026
  8.300000000000002E-003   -2.035513950429108E-026
  8.400000000000001E-003   -2.180842365727232E-026
  8.500000000000002E-003   -2.163190010846800E-026
  8.600000000000002E-003   -1.954829424529835E-026
  8.700000000000001E-003   -1.540102153254857E-026
  8.800000000000002E-003   -9.189367193159587E-027
  8.900000000000002E-003   -1.095458083309574E-027
  9.000000000000001E-003    8.500859377281755E-027
  9.100000000000002E-003    1.902268603671258E-026
  9.200000000000002E-003    2.971479111492862E-026
  9.300000000000001E-003    3.968168076825580E-026
  9.400000000000002E-003    4.794461114578626E-026
  9.500000000000001E-003    5.351537520792189E-026
  9.600000000000001E-003    5.548270771023638E-026
  9.700000000000002E-003    5.310533324729623E-026
  9.800000000000001E-003    4.590410504489916E-026
  9.900000000000001E-003    3.374457278610434E-026
  1.000000000000000E-002    1.690095330794904E-026
  1.010000000000000E-002   -3.907247739745252E-027
  1.020000000000000E-002   -2.751332440972209E-026
  1.030000000000000E-002   -5.234147063974426E-026
  1.040000000000000E-002   -7.648710813258622E-026
  1.050000000000000E-002   -9.783805546598585E-026
  1.060000000000000E-002   -1.142310192819934E-025
  1.070000000000000E-002   -1.236339096709322E-025
  1.080000000000000E-002   -1.243405222395100E-025
  1.090000000000000E-002   -1.151613675553823E-025
  1.100000000000000E-002   -9.559243275637993E-026
  1.110000000000000E-002   -6.594344707854010E-026
  1.120000000000000E-002   -2.740865191627911E-026
  1.130000000000000E-002    1.793350433949346E-026
  1.140000000000000E-002    6.720033024754924E-026
  1.150000000000000E-002    1.168664499964747E-025
  1.160000000000000E-002    1.630010946943721E-025
  1.170000000000000E-002    2.015675049367129E-025
  1.180000000000000E-002    2.287628407065711E-025
  1.190000000000000E-002    2.413707765450060E-025
  1.200000000000000E-002    2.370945001035678E-025
  1.210000000000000E-002    2.148360645268605E-025
  1.220000000000000E-002    1.748898538748633E-025
  1.230000000000000E-002    1.190231114941088E-025
  1.240000000000000E-002    5.042496722941426E-026
  1.250000000000000E-002   -2.648286262536078E-026
  1.260000000000000E-002   -1.063669420069924E-025
  1.270000000000000E-002   -1.834132164533506E-025
  1.280000000000000E-002   -2.518330392246057E-025
  1.290000000000000E-002   -3.063973555414411E-025
  1.300000000000000E-002   -3.429439419087414E-025
  1.310000000000000E-002   -3.588005139295863E-025
  1.320000000000000E-002   -3.530694610676898E-025
  1.330000000000000E-002   -3.267305132689007E-025
  1.340000000000000E-002   -2.825340398810431E-025
  1.350000000000000E-002   -2.246792274986308E-025
  1.360000000000000E-002   -1.582972010967929E-025
  1.370000000000000E-002   -8.878500842639555E-026
  1.380000000000000E-002   -2.106134033959720E-026
  1.390000000000000E-002    4.116587397840065E-026
  1.400000000000000E-002    9.601926617848003E-026
  1.410000000000000E-002    1.438567052667715E-025
  1.420000000000000E-002    1.873719782585646E-025
  1.430000000000000E-002    2.313273494249344E-025
  1.440000000000000E-002    2.818907600434905E-025
  1.450000000000000E-002    3.455986247537212E-025
  1.460000000000000E-002    4.280180611557129E-025
  1.470000000000000E-002    5.322349697899339E-025
  1.480000000000000E-002    6.573428352563340E-025
  1.490000000000000E-002    7.971413650394709E-025
  1.500000000000000E-002    9.392696798668568E-025
  1.510000000000000E-002    1.064990713491641E-024
  1.520000000000000E-002    1.149806407585295E-024
  1.530000000000000E-002    1.165019302578086E-024
  1.540000000000000E-002    1.080264704198937E-024
  1.550000000000000E-002    8.669263278807443E-025
  1.560000000000000E-002    5.022259542079884E-025
  1.570000000000000E-002   -2.634548469844662E-026
  1.580000000000000E-002   -7.166945120132537E-025
  1.590000000000000E-002   -1.548410386946360E-024
  1.600000000000000E-002   -2.480222265105490E-024
  1.610000000000000E-002   -3.449167626039161E-024
  1.620000000000000E-002   -4.371926874951946E-024
  1.630000000000000E-002   -5.148635443043227E-024
  1.640000000000000E-002   -5.669282692199832E-024
  1.650000000000000E-002   -5.822546876076361E-024
  1.660000000000000E-002   -5.506638457087417E-024
  1.670000000000000E-002   -4.641432252107560E-024
  1.680000000000000E-002   -3.180903825880815E-024
  1.690000000000000E-002   -1.124676927268104E-024
  1.700000000000000E-002    1.472630229781620E-024
  1.710000000000000E-002    4.495590380570477E-024
  1.720000000000000E-002    7.766885839646357E-024
  1.730000000000000E-002    1.105190306299294E-023
  1.740000000000000E-002    1.406955148686955E-023
  1.750000000000000E-002    1.650933388799971E-023
  1.760000000000000E-002    1.805411023565488E-023
  1.770000000000000E-002    1.840735456657685E-023
  1.780000000000000E-002    1.732309197234320E-023
  1.790000000000000E-002    1.463618078723333E-023
  1.800000000000000E-002    1.029021607494134E-023
  1.810000000000000E-002    4.360138274186027E-024
  1.820000000000000E-002   -2.933266276743136E-024
  1.830000000000000E-002   -1.121948482471974E-023
  1.840000000000000E-002   -1.998689041099882E-023
  1.850000000000000E-002   -2.860482007665037E-023
  1.860000000000000E-002   -3.635905950519187E-023
  1.870000000000000E-002   -4.249941494568400E-023