 -4.000000000000000E-002    0.000000000000000E+000
 -3.990000000000000E-002    0.000000000000000E+000
 -3.980000000000000E-002    0.000000000000000E+000
 -3.970000000000000E-002    0.000000000000000E+000
 -3.960000000000000E-002    0.000000000000000E+000
 -3.950000000000000E-002    0.000000000000000E+000
 -3.940000000000000E-002    0.000000000000000E+000
 -3.930000000000000E-002    0.000000000000000E+000
 -3.920000000000000E-002    0.000000000000000E+000
 -3.910000000000000E-002    0.000000000000000E+000
 -3.900000000000000E-002    0.000000000000000E+000
 -3.890000000000000E-002    0.000000000000000E+000
 -3.880000000000000E-002    0.000000000000000E+000
 -3.870000000000000E-002    0.000000000000000E+000
 -3.860000000000000E-002    0.000000000000000E+000
 -3.850000000000000E-002    0.000000000000000E+000
 -3.840000000000000E-002    0.000000000000000E+000
 -3.830000000000000E-002    0.000000000000000E+000
 -3.820000000000000E-002    0.000000000000000E+000
 -3.810000000000000E-002    0.000000000000000E+000
 -3.800000000000000E-002    0.000000000000000E+000
 -3.790000000000000E-002    0.000000000000000E+000
 -3.780000000000000E-002    0.000000000000000E+000
 -3.770000000000000E-002    0.000000000000000E+000
 -3.760000000000000E-002    0.000000000000000E+000
 -3.750000000000000E-002    0.000000000000000E+000
 -3.740000000000000E-002    0.000000000000000E+000
 -3.730000000000000E-002    0.000000000000000E+000
 -3.720000000000000E-002    0.000000000000000E+000
 -3.710000000000000E-002    0.000000000000000E+000
 -3.700000000000000E-002    0.000000000000000E+000
 -3.690000000000000E-002    0.000000000000000E+000
 -3.680000000000000E-002    0.000000000000000E+000
 -3.670000000000000E-002    0.000000000000000E+000
 -3.660000000000000E-002    0.000000000000000E+000
 -3.650000000000000E-002    0.000000000000000E+000
 -3.640000000000000E-002    0.000000000000000E+000
 -3.630000000000000E-002    0.000000000000000E+000
 -3.620000000000000E-002    0.000000000000000E+000
 -3.610000000000000E-002    0.000000000000000E+000
 -3.600000000000000E-002    0.000000000000000E+000
 -3.590000000000000E-002    0.000000000000000E+000
 -3.580000000000000E-002    0.000000000000000E+000
 -3.570000000000000E-002    0.000000000000000E+000
 -3.560000000000000E-002    0.000000000000000E+000
 -3.550000000000000E-002    0.000000000000000E+000
 -3.540000000000000E-002    0.000000000000000E+000
 -3.530000000000000E-002    0.000000000000000E+000
 -3.520000000000000E-002    0.000000000000000E+000
 -3.510000000000000E-002    0.000000000000000E+000
 -3.500000000000000E-002    0.000000000000000E+000
 -3.490000000000000E-002    0.000000000000000E+000
 -3.480000000000000E-002    0.000000000000000E+000
 -3.470000000000000E-002    0.000000000000000E+000
 -3.460000000000000E-002    0.000000000000000E+000
 -3.450000000000000E-002    0.000000000000000E+000
 -3.440000000000000E-002    0.000000000000000E+000
 -3.430000000000000E-002    0.000000000000000E+000
 -3.420000000000000E-002    0.000000000000000E+000
 -3.410000000000000E-002    0.000000000000000E+000
 -3.400000000000000E-002    0.000000000000000E+000
 -3.390000000000000E-002    0.000000000000000E+000
 -3.380000000000000E-002    0.000000000000000E+000
 -3.370000000000000E-002    0.000000000000000E+000
 -3.360000000000000E-002    0.000000000000000E+000
 -3.350000000000000E-002    0.000000000000000E+000
 -3.340000000000000E-002    0.000000000000000E+000
 -3.330000000000000E-002    0.000000000000000E+000
 -3.320000000000000E-002    0.000000000000000E+000
 -3.310000000000000E-002    0.000000000000000E+000
 -3.300000000000000E-002    0.000000000000000E+000
 -3.290000000000000E-002    0.000000000000000E+000
 -3.280000000000000E-002    0.000000000000000E+000
 -3.270000000000000E-002    0.000000000000000E+000
 -3.260000000000000E-002    0.000000000000000E+000
 -3.250000000000000E-002    0.000000000000000E+000
 -3.240000000000000E-002    0.000000000000000E+000
 -3.230000000000000E-002    0.000000000000000E+000
 -3.220000000000000E-002    0.000000000000000E+000
 -3.210000000000000E-002    0.000000000000000E+000
 -3.200000000000000E-002    0.000000000000000E+000
 -3.190000000000000E-002    0.000000000000000E+000
 -3.180000000000000E-002    0.000000000000000E+000
 -3.170000000000000E-002    0.000000000000000E+000
 -3.160000000000000E-002    0.000000000000000E+000
 -3.150000000000000E-002    0.000000000000000E+000
 -3.140000000000000E-002    0.000000000000000E+000
 -3.130000000000000E-002    0.000000000000000E+000
 -3.120000000000000E-002    0.000000000000000E+000
 -3.110000000000000E-002    0.000000000000000E+000
 -3.100000000000000E-002    0.000000000000000E+000
 -3.090000000000000E-002    0.000000000000000E+000
 -3.080000000000000E-002    0.000000000000000E+000
 -3.070000000000000E-002    0.000000000000000E+000
 -3.060000000000000E-002    0.000000000000000E+000
 -3.050000000000000E-002    0.000000000000000E+000
 -3.040000000000000E-002    0.000000000000000E+000
 -3.030000000000000E-002    0.000000000000000E+000
 -3.020000000000000E-002    0.000000000000000E+000
 -3.010000000000000E-002    0.000000000000000E+000
 -3.000000000000000E-002    0.000000000000000E+000
 -2.990000000000000E-002    0.000000000000000E+000
 -2.980000000000000E-002    0.000000000000000E+000
 -2.970000000000000E-002    0.000000000000000E+000
 -2.960000000000000E-002    0.000000000000000E+000
 -2.950000000000000E-002    0.000000000000000E+000
 -2.940000000000000E-002    0.000000000000000E+000
 -2.930000000000000E-002    0.000000000000000E+000
 -2.920000000000000E-002    0.000000000000000E+000
 -2.910000000000000E-002    0.000000000000000E+000
 -2.900000000000000E-002    0.000000000000000E+000
 -2.890000000000000E-002    0.000000000000000E+000
 -2.880000000000000E-002    0.000000000000000E+000
 -2.870000000000000E-002    0.000000000000000E+000
 -2.860000000000000E-002    0.000000000000000E+000
 -2.850000000000000E-002    0.000000000000000E+000
 -2.840000000000000E-002    0.000000000000000E+000
 -2.830000000000000E-002    0.000000000000000E+000
 -2.820000000000000E-002    0.000000000000000E+000
 -2.810000000000000E-002    0.000000000000000E+000
 -2.800000000000000E-002    0.000000000000000E+000
 -2.790000000000000E-002    0.000000000000000E+000
 -2.780000000000000E-002    0.000000000000000E+000
 -2.770000000000000E-002    0.000000000000000E+000
 -2.760000000000000E-002    0.000000000000000E+000
 -2.750000000000000E-002    0.000000000000000E+000
 -2.740000000000000E-002    0.000000000000000E+000
 -2.730000000000000E-002    0.000000000000000E+000
 -2.720000000000000E-002    0.000000000000000E+000
 -2.710000000000000E-002    0.000000000000000E+000
 -2.700000000000000E-002    0.000000000000000E+000
 -2.690000000000000E-002    0.000000000000000E+000
 -2.680000000000000E-002    0.000000000000000E+000
 -2.670000000000000E-002    0.000000000000000E+000
 -2.660000000000000E-002    0.000000000000000E+000
 -2.650000000000000E-002    0.000000000000000E+000
 -2.640000000000000E-002    0.000000000000000E+000
 -2.630000000000000E-002    0.000000000000000E+000
 -2.620000000000000E-002    0.000000000000000E+000
 -2.610000000000000E-002    0.000000000000000E+000
 -2.600000000000000E-002    0.000000000000000E+000
 -2.590000000000000E-002    0.000000000000000E+000
 -2.580000000000000E-002    0.000000000000000E+000
 -2.570000000000000E-002    0.000000000000000E+000
 -2.560000000000000E-002    0.000000000000000E+000
 -2.550000000000000E-002    0.000000000000000E+000
 -2.540000000000000E-002    0.000000000000000E+000
 -2.530000000000000E-002    0.000000000000000E+000
 -2.520000000000000E-002    0.000000000000000E+000
 -2.510000000000000E-002    0.000000000000000E+000
 -2.500000000000000E-002    0.000000000000000E+000
 -2.490000000000000E-002    0.000000000000000E+000
 -2.480000000000000E-002    0.000000000000000E+000
 -2.470000000000000E-002    0.000000000000000E+000
 -2.460000000000000E-002    0.000000000000000E+000
 -2.450000000000000E-002    0.000000000000000E+000
 -2.440000000000000E-002    0.000000000000000E+000
 -2.430000000000000E-002    0.000000000000000E+000
 -2.420000000000000E-002    0.000000000000000E+000
 -2.410000000000000E-002    0.000000000000000E+000
 -2.400000000000000E-002    0.000000000000000E+000
 -2.390000000000000E-002    0.000000000000000E+000
 -2.380000000000000E-002    0.000000000000000E+000
 -2.370000000000000E-002    0.000000000000000E+000
 -2.360000000000000E-002    0.000000000000000E+000
 -2.350000000000000E-002    0.000000000000000E+000
 -2.340000000000000E-002    0.000000000000000E+000
 -2.330000000000000E-002    0.000000000000000E+000
 -2.320000000000000E-002    0.000000000000000E+000
 -2.310000000000000E-002    0.000000000000000E+000
 -2.300000000000000E-002    0.000000000000000E+000
 -2.290000000000000E-002    0.000000000000000E+000
 -2.280000000000000E-002    0.000000000000000E+000
 -2.270000000000000E-002    0.000000000000000E+000
 -2.260000000000000E-002    0.000000000000000E+000
 -2.250000000000000E-002    0.000000000000000E+000
 -2.240000000000000E-002    0.000000000000000E+000
 -2.230000000000000E-002    0.000000000000000E+000
 -2.220000000000000E-002    0.000000000000000E+000
 -2.210000000000000E-002    0.000000000000000E+000
 -2.200000000000000E-002    0.000000000000000E+000
 -2.190000000000000E-002    0.000000000000000E+000
 -2.180000000000000E-002    0.000000000000000E+000
 -2.170000000000000E-002    0.000000000000000E+000
 -2.160000000000000E-002    0.000000000000000E+000
 -2.150000000000000E-002    0.000000000000000E+000
 -2.140000000000000E-002    0.000000000000000E+000
 -2.130000000000000E-002    0.000000000000000E+000
 -2.120000000000000E-002    0.000000000000000E+000
 -2.110000000000000E-002    0.000000000000000E+000
 -2.100000000000000E-002    0.000000000000000E+000
 -2.090000000000000E-002    0.000000000000000E+000
 -2.080000000000000E-002    0.000000000000000E+000
 -2.070000000000000E-002    0.000000000000000E+000
 -2.060000000000000E-002    0.000000000000000E+000
 -2.050000000000000E-002    0.000000000000000E+000
 -2.040000000000000E-002    0.000000000000000E+000
 -2.030000000000000E-002    0.000000000000000E+000
 -2.020000000000000E-002    0.000000000000000E+000
 -2.010000000000000E-002    0.000000000000000E+000
 -2.000000000000000E-002    0.000000000000000E+000
 -1.990000000000000E-002    0.000000000000000E+000
 -1.980000000000000E-002    0.000000000000000E+000
 -1.970000000000000E-002    0.000000000000000E+000
 -1.960000000000000E-002    0.000000000000000E+000
 -1.950000000000000E-002    0.000000000000000E+000
 -1.940000000000000E-002    0.000000000000000E+000
 -1.930000000000000E-002    0.000000000000000E+000
 -1.920000000000000E-002    0.000000000000000E+000
 -1.910000000000000E-002    0.000000000000000E+000
 -1.900000000000000E-002    0.000000000000000E+000
 -1.890000000000000E-002    0.000000000000000E+000
 -1.880000000000000E-002    0.000000000000000E+000
 -1.870000000000000E-002    0.000000000000000E+000
 -1.860000000000000E-002    0.000000000000000E+000
 -1.850000000000000E-002    0.000000000000000E+000
 -1.840000000000000E-002    0.000000000000000E+000
 -1.830000000000000E-002    0.000000000000000E+000
 -1.820000000000000E-002    0.000000000000000E+000
 -1.810000000000000E-002    0.000000000000000E+000
 -1.800000000000000E-002    0.000000000000000E+000
 -1.790000000000000E-002    0.000000000000000E+000
 -1.780000000000000E-002    0.000000000000000E+000
 -1.770000000000000E-002    0.000000000000000E+000
 -1.760000000000000E-002    0.000000000000000E+000
 -1.750000000000000E-002    0.000000000000000E+000
 -1.740000000000000E-002    0.000000000000000E+000
 -1.730000000000000E-002    0.000000000000000E+000
 -1.720000000000000E-002    0.000000000000000E+000
 -1.710000000000000E-002    0.000000000000000E+000
 -1.700000000000000E-002    0.000000000000000E+000
 -1.690000000000000E-002   -6.414635304221270E-048
 -1.680000000000000E-002   -1.282927060844254E-047
 -1.670000000000000E-002   -2.565854121688508E-047
 -1.660000000000000E-002   -3.848781182532762E-047
 -1.650000000000000E-002   -7.076120100077333E-047
 -1.640000000000000E-002   -9.661995487199777E-047
 -1.630000000000000E-002   -1.353079793516648E-046
 -1.620000000000000E-002   -1.806108517898924E-046
 -1.610000000000000E-002   -1.967673066308704E-046
 -1.600000000000000E-002   -1.936798555591847E-046
 -1.590000000000000E-002   -1.713484985748352E-046
 -1.580000000000000E-002   -1.006059371062747E-047
 -1.570000000000000E-002    1.607689180359977E-046
 -1.560000000000000E-002    5.218720600962511E-046
 -1.550000000000000E-002    1.033183921238457E-045
 -1.540000000000000E-002    1.744511232231047E-045
 -1.530000000000000E-002    2.502330388126327E-045
 -1.520000000000000E-002    3.743209797875085E-045
 -1.510000000000000E-002    4.906992412331870E-045
 -1.500000000000000E-002    4.840253733312803E-045
 -1.490000000000000E-002    4.436639142798052E-045
 -1.480000000000000E-002    3.584521677937808E-045
 -1.470000000000000E-002    2.421735656793699E-045
 -1.460000000000000E-002    2.300175310241318E-046
 -1.450000000000000E-002   -3.452736389799819E-045
 -1.440000000000000E-002   -8.949222554833965E-045
 -1.430000000000000E-002   -1.505091265179992E-044
 -1.420000000000000E-002   -2.179601470664173E-044
 -1.410000000000000E-002   -2.975080154343391E-044
 -1.400000000000000E-002   -3.685364464088067E-044
 -1.390000000000000E-002   -4.327574412415494E-044
 -1.380000000000000E-002   -4.714742899195279E-044
 -1.370000000000000E-002   -4.919308833657819E-044
 -1.360000000000000E-002   -4.713031425634634E-044
 -1.350000000000000E-002   -4.190959934700885E-044
 -1.340000000000000E-002   -3.200913435785083E-044
 -1.330000000000000E-002   -1.704558071561830E-044
 -1.320000000000000E-002    5.545910662739363E-045
 -1.310000000000000E-002    3.637583736461220E-044
 -1.300000000000000E-002    7.803411421490201E-044
 -1.290000000000000E-002    1.354092815016770E-043
 -1.280000000000000E-002    2.108014126494004E-043
 -1.270000000000000E-002    3.108987153462390E-043
 -1.260000000000000E-002    4.406761113494509E-043
 -1.250000000000000E-002    6.024982619271479E-043
 -1.240000000000000E-002    7.946328904316764E-043
 -1.230000000000000E-002    1.007085224755477E-042
 -1.220000000000000E-002    1.218398048172970E-042
 -1.210000000000000E-002    1.390476358817127E-042
 -1.200000000000000E-002    1.464505868381042E-042
 -1.190000000000000E-002    1.358771127698275E-042
 -1.180000000000000E-002    9.690847038272504E-043
 -1.170000000000000E-002    1.744399099746136E-043
 -1.160000000000000E-002   -1.155369078305366E-042
 -1.150000000000000E-002   -3.140150484177591E-042
 -1.140000000000000E-002   -5.862081413927475E-042
 -1.130000000000000E-002   -9.332202183339306E-042
 -1.120000000000000E-002   -1.344401101844219E-041
 -1.110000000000000E-002   -1.792827371176825E-041
 -1.100000000000000E-002   -2.230421427283034E-041
 -1.090000000000000E-002   -2.583585447498457E-041
 -1.080000000000000E-002   -2.750864656905641E-041
 -1.070000000000000E-002   -2.603917190564894E-041
 -1.060000000000000E-002   -1.991933089983320E-041
 -1.050000000000000E-002   -7.528983353507480E-042
 -1.040000000000000E-002    1.268516399642210E-041
 -1.030000000000000E-002    4.194902235951469E-041
 -1.020000000000000E-002    8.081221310557353E-041
 -1.010000000000000E-002    1.287221981391521E-040
 -1.000000000000000E-002    1.835478225625131E-040
 -9.899999999999999E-003    2.410799689766124E-040
 -9.800000000000000E-003    2.945757837151433E-040
 -9.699999999999999E-003    3.344398883678928E-040
 -9.599999999999999E-003    3.481396626658878E-040
 -9.500000000000000E-003    3.204870240212511E-040
 -9.399999999999999E-003    2.344325222859225E-040
 -9.299999999999999E-003    7.251710670246230E-041
 -9.200000000000000E-003   -1.809004104477772E-040
 -9.099999999999999E-003   -5.365601052633837E-040
 -8.999999999999999E-003   -9.963725328733391E-040
 -8.900000000000000E-003   -1.548766272037503E-039
 -8.799999999999999E-003   -2.163614174317563E-039
 -8.699999999999999E-003   -2.787245747611063E-039
 -8.600000000000000E-003   -3.338295058223373E-039
 -8.499999999999999E-003   -3.705400340959437E-039
 -8.399999999999999E-003   -3.747997534468192E-039
 -8.300000000000000E-003   -3.301644944996298E-039
 -8.199999999999999E-003   -2.189362044019580E-039
 -8.100000000000000E-003   -2.403193819557332E-040
 -8.000000000000000E-003    2.683180416049161E-039
 -7.899999999999999E-003    6.650264086541192E-039
 -7.800000000000000E-003    1.161857226350186E-038
 -7.699999999999999E-003    1.738644311834606E-038
 -7.599999999999999E-003    2.354473430592501E-038
 -7.499999999999999E-003    2.943509903687317E-038
 -7.399999999999999E-003    3.412383933994498E-038
 -7.299999999999999E-003    3.640255654604043E-038
 -7.199999999999999E-003    3.482821520223453E-038
 -7.100000000000000E-003    2.781541458109428E-038
 -6.999999999999999E-003    1.379203792612107E-038
 -6.899999999999999E-003   -8.574592562340699E-039
 -6.800000000000000E-003   -4.008093049368059E-038
 -6.699999999999999E-003   -8.062982233758647E-038
 -6.599999999999999E-003   -1.288359378476297E-037
 -6.499999999999999E-003   -1.816334365189376E-037
 -6.399999999999999E-003   -2.339426666644875E-037
 -6.299999999999999E-003   -2.784696571099592E-037
 -6.199999999999999E-003   -3.057258518806510E-037
 -6.100000000000000E-003   -3.043626755385612E-037
 -5.999999999999999E-003   -2.619120856182524E-037
 -5.899999999999999E-003   -1.660065363374943E-037
 -5.800000000000000E-003   -6.115341533421396E-039
 -5.699999999999999E-003    2.242218943796590E-037
 -5.599999999999999E-003    5.247628482228368E-037
 -5.499999999999999E-003    8.857256798230371E-037
 -5.399999999999999E-003    1.285053585272659E-036
 -5.299999999999999E-003    1.686199751910868E-036
 -5.199999999999999E-003    2.036953695420215E-036
 -5.099999999999999E-003    2.269901899350497E-036
 -4.999999999999999E-003    2.305133209289761E-036
 -4.899999999999999E-003    2.055740903179061E-036
 -4.799999999999999E-003    1.436516291750809E-036
 -4.699999999999999E-003    3.759503584160548E-037
 -4.599999999999999E-003   -1.168738434583039E-036
 -4.499999999999999E-003   -3.194357188495869E-036
 -4.399999999999999E-003   -5.633693097467415E-036
 -4.299999999999999E-003   -8.338761110173268E-036
 -4.199999999999999E-003   -1.106807489987705E-035
 -4.099999999999999E-003   -1.348120115221322E-035
 -3.999999999999999E-003   -1.514414321590500E-035
 -3.899999999999999E-003   -1.554903282353851E-035
 -3.799999999999999E-003   -1.415104575051171E-035
 -3.699999999999999E-003   -1.042429453804299E-035
 -3.599999999999999E-003   -3.936630667709801E-036
 -3.499999999999999E-003    5.559209806546829E-036
 -3.399999999999999E-003    1.802377991634836E-035
 -3.299999999999999E-003    3.302754749863042E-035
 -3.199999999999999E-003    4.965871932360057E-035
 -3.099999999999999E-003    6.645818471701295E-035
 -2.999999999999999E-003    8.139990613718218E-035
 -2.899999999999999E-003    9.193586199589261E-035
 -2.799999999999999E-003    9.512330906688763E-035
 -2.699999999999999E-003    8.784806572085458E-035
 -2.599999999999999E-003    6.715020082573942E-035
 -2.499999999999999E-003    3.064777776634365E-035
 -2.399999999999999E-003   -2.295953171835209E-035
 -2.299999999999999E-003   -9.334167374781987E-035
 -2.199999999999999E-003   -1.779968553254694E-034
 -2.099999999999999E-003   -2.717874156437997E-034
 -1.999999999999999E-003   -3.666375808466924E-034
 -1.899999999999999E-003   -4.514866285380076E-034
 -1.799999999999999E-003   -5.125915276109165E-034
 -1.699999999999999E-003   -5.342619974815304E-034
 -1.599999999999999E-003   -5.000860488445241E-034
 -1.499999999999999E-003   -3.946630740882798E-034
 -1.399999999999999E-003   -2.058053509227882E-034
 -1.299999999999999E-003    7.290160969668968E-035
 -1.199999999999999E-003    4.393696435432985E-034
 -1.099999999999999E-003    8.803831609564635E-034
 -9.999999999999989E-004    1.369429434697324E-033
 -8.999999999999990E-004    1.865395849383125E-033
 -7.999999999999990E-004    2.312575408505419E-033
 -6.999999999999989E-004    2.642408325303949E-033
 -5.999999999999990E-004    2.777318241848189E-033
 -4.999999999999989E-004    2.636866635200885E-033
 -3.999999999999989E-004    2.146245037223956E-033
 -2.999999999999989E-004    1.246851069875036E-033
 -1.999999999999989E-004   -9.163104094842062E-035
 -9.999999999999892E-005   -1.858588154473287E-033
  1.084202172485504E-018   -3.990580308671158E-033
  1.000000000000011E-004   -6.361812929780375E-033
  2.000000000000011E-004   -8.778838274897799E-033
  3.000000000000011E-004   -1.098142375780846E-032
  4.000000000000011E-004   -1.265140642672301E-032
  5.000000000000011E-004   -1.343098262267957E-032
  6.000000000000011E-004   -1.295122545037854E-032
  7.000000000000011E-004   -1.087068491860634E-032
  8.000000000000011E-004   -6.922704939869712E-033
  9.000000000000012E-004   -9.686847165820837E-034
  1.000000000000001E-003    6.947018860703932E-033
  1.100000000000001E-003    1.654633214709467E-032
  1.200000000000001E-003    2.727786811381860E-032
  1.300000000000001E-003    3.829633776911612E-032
  1.400000000000001E-003    4.846896265416247E-032
  1.500000000000001E-003    5.641615586525163E-032
  1.600000000000001E-003    6.059197463086755E-032
  1.700000000000001E-003    5.940695648460077E-032
  1.800000000000001E-003    5.139189743066062E-032
  1.900000000000001E-003    3.539608379169156E-032
  2.000000000000001E-003    1.080776517418728E-032
  2.100000000000001E-003   -2.222139872788514E-032
  2.200000000000001E-003   -6.257176587027116E-032
  2.300000000000001E-003   -1.079995752094898E-031
  2.400000000000001E-003   -1.550602348854511E-031
  2.500000000000001E-003   -1.991422005178280E-031
  2.600000000000001E-003   -2.346387627303251E-031
  2.700000000000001E-003   -2.552774743094138E-031
  2.800000000000001E-003   -2.546150165144055E-031
  2.900000000000001E-003   -2.266889604729783E-031
  3.000000000000001E-003   -1.667982917419996E-031
  3.100000000000001E-003   -7.236264601817739E-032
  3.200000000000001E-003    5.621234714491773E-032
  3.300000000000001E-003    2.147564956783989E-031
  3.400000000000001E-003    3.947516654313010E-031
  3.500000000000001E-003    5.830600378716159E-031
  3.600000000000001E-003    7.620778128306056E-031
  3.700000000000001E-003    9.104112670277108E-031
  3.800000000000001E-003    1.004141816546067E-030
  3.900000000000001E-003    1.018699617496972E-030
  4.000000000000001E-003    9.313042249342988E-031
  4.100000000000001E-003    7.238583552511707E-031
  4.200000000000001E-003    3.861019436692798E-031
  4.300000000000001E-003   -8.124492672786529E-032
  4.400000000000001E-003   -6.636902832432652E-031
  4.500000000000001E-003   -1.330920314590143E-030
  4.600000000000002E-003   -2.035900651628668E-030
  4.700000000000001E-003   -2.715520269875582E-030
  4.800000000000001E-003   -3.293101724975027E-030
  4.900000000000002E-003   -3.682982860266492E-030
  5.000000000000001E-003   -3.797204656584557E-030
  5.100000000000001E-003   -3.554123357867064E-030
  5.200000000000001E-003   -2.888510615932784E-030
  5.300000000000002E-003   -1.762443246963221E-030
  5.400000000000001E-003   -1.760218382122867E-031
  5.500000000000001E-003    1.823256250986051E-030
  5.600000000000002E-003    4.133789508674116E-030
  5.700000000000001E-003    6.597185375659434E-030
  5.800000000000001E-003    9.000852123619245E-030
  5.900000000000002E-003    1.108686699899024E-029
  6.000000000000001E-003    1.256768885270211E-029
  6.100000000000001E-003    1.314869966711323E-029
  6.200000000000002E-003    1.255682311247260E-029
  6.300000000000002E-003    1.057365798818674E-029
  6.400000000000001E-003    7.070708549175282E-030
  6.500000000000001E-003    2.043525258660572E-030
  6.600000000000002E-003   -4.359071310892196E-030
  6.700000000000001E-003   -1.181486404510542E-029
  6.800000000000001E-003   -1.982139057578119E-029
  6.900000000000002E-003   -2.770611603683649E-029
  7.000000000000001E-003   -3.465641141083671E-029
  7.100000000000001E-003   -3.977069404716106E-029
  7.200000000000002E-003   -4.213013485811655E-029
  7.300000000000002E-003   -4.088808473874932E-029
  7.400000000000001E-003   -3.537183121246283E-029
  7.500000000000001E-003   -2.518886900964398E-029
  7.600000000000002E-003   -1.032764579334730E-029
  7.700000000000001E-003    8.758828767800098E-030
  7.800000000000001E-003    3.109887471726927E-029
  7.900000000000001E-003    5.518946326444180E-029
  8.000000000000002E-003    7.903507098578485E-029
  8.100000000000001E-003    1.002449925203199E-028
  8.200000000000001E-003    1.161913353121806E-028
  8.300000000000002E-003    1.242240911853840E-028
  8.400000000000001E-003    1.219329258969160E-028
  8.500000000000002E-003    1.074383068432048E-028
  8.600000000000002E-003    7.968798186352720E-029
  8.700000000000001E-003    3.872933648205048E-029
  8.800000000000002E-003   -1.407541539388273E-029
  8.900000000000002E-003   -7.592470867314158E-029
  9.000000000000001E-003   -1.425748534401634E-028
  9.100000000000002E-003   -2.084832526495359E-028
  9.200000000000002E-003   -2.671117260340673E-028
  9.300000000000001E-003   -3.113897381746007E-028
  9.400000000000002E-003   -3.343208467840169E-028
  9.500000000000001E-003   -3.296974750856854E-028
  9.600000000000001E-003   -2.928706978650576E-028
  9.700000000000002E-003   -2.215061359024553E-028
  9.800000000000001E-003   -1.162451901532045E-028
  9.900000000000001E-003    1.881465166695655E-029
  1.000000000000000E-002    1.759037221598593E-028
  1.010000000000000E-002    3.436993924500422E-028
  1.020000000000000E-002    5.078300610734141E-028
  1.030000000000000E-002    6.517811744445456E-028
  1.040000000000000E-002    7.581822679394959E-028
  1.050000000000000E-002    8.104091794696947E-028
  1.060000000000000E-002    7.943904356258665E-028
  1.070000000000000E-002    7.004659083014619E-028
  1.080000000000000E-002    5.251113902583074E-028
  1.090000000000000E-002    2.723255353003735E-028
  1.100000000000000E-002   -4.552553085012460E-029
  1.110000000000000E-002   -4.075890083260512E-028
  1.120000000000000E-002   -7.852691846549489E-028
  1.130000000000000E-002   -1.143902296168473E-027
  1.140000000000000E-002   -1.445344175721406E-027
  1.150000000000000E-002   -1.651349321800092E-027
  1.160000000000000E-002   -1.727514762558389E-027
  1.170000000000000E-002   -1.647459776405565E-027
  1.180000000000000E-002   -1.396834897519597E-027
  1.190000000000000E-002   -9.766954270668314E-028
  1.200000000000000E-002   -4.057733536444701E-028
  1.210000000000000E-002    2.787862766395138E-028
  1.220000000000000E-002    1.022555030886287E-027
  1.230000000000000E-002    1.757004226870212E-027
  1.240000000000000E-002    2.404731281141901E-027
  1.250000000000000E-002    2.886490225169693E-027
  1.260000000000000E-002    3.129546350477100E-027
  1.270000000000000E-002    3.076647515552988E-027
  1.280000000000000E-002    2.694711923540058E-027
  1.290000000000000E-002    1.982213317366966E-027
  1.300000000000000E-002    9.742150485071769E-028
  1.310000000000000E-002   -2.559048830799317E-028
  1.320000000000000E-002   -1.598793182428909E-027
  1.330000000000000E-002   -2.915941914792383E-027
  1.340000000000000E-002   -4.050971416770673E-027
  1.350000000000000E-002   -4.844848635842530E-027
  1.360000000000000E-002   -5.153967555102679E-027
  1.370000000000000E-002   -4.869504633606975E-027
  1.380000000000000E-002   -3.936045209322386E-027
  1.390000000000000E-002   -2.367199644690812E-027
  1.400000000000000E-002   -2.558768002883755E-028
  1.410000000000000E-002    2.222923149305344E-027
  1.420000000000000E-002    4.818433583328603E-027
  1.430000000000000E-002    7.220482954506754E-027
  1.440000000000000E-002    9.085779692806711E-027
  1.450000000000000E-002    1.007287436677410E-026
  1.460000000000000E-002    9.883336059774340E-027
  1.470000000000000E-002    8.305492719432495E-027
  1.480000000000000E-002    5.256179651700624E-027
  1.490000000000000E-002    8.152940446126440E-028
  1.500000000000000E-002   -4.752116501683396E-027
  1.510000000000000E-002   -1.099108250515942E-026
  1.520000000000000E-002   -1.727298947055859E-026
  1.530000000000000E-002   -2.283494639965945E-026
  1.540000000000000E-002   -2.684201809624615E-026
  1.550000000000000E-002   -2.846952756247639E-026
  1.560000000000000E-002   -2.699982275362471E-026
  1.570000000000000E-002   -2.192530119143161E-026
  1.580000000000000E-002   -1.304732095991047E-026
  1.590000000000000E-002   -5.592212445394154E-028
  1.600000000000000E-002    1.489865360546525E-026
  1.610000000000000E-002    3.222312648567658E-026
  1.620000000000000E-002    4.988035930272633E-026
  1.630000000000000E-002    6.599112747752697E-026
  1.640000000000000E-002    7.846947905962449E-026
  1.650000000000000E-002    8.520917761080830E-026
  1.660000000000000E-002    8.430626446908391E-026
  1.670000000000000E-002    7.430021577601631E-026
  1.680000000000000E-002    5.441103495989145E-026
  1.690000000000000E-002    2.474644787796910E-026
  1.700000000000000E-002   -1.354789604008518E-026
  1.710000000000000E-002   -5.822079950002707E-026
  1.720000000000000E-002   -1.059514244061301E-025
  1.730000000000000E-002   -1.525022099347705E-025
  1.740000000000000E-002   -1.929921977138613E-025
  1.750000000000000E-002   -2.222821868600306E-025
  1.760000000000000E-002   -2.354499020974158E-025
  1.770000000000000E-002   -2.283208910039581E-025
  1.780000000000000E-002   -1.980095244134074E-025
  1.790000000000000E-002   -1.434166409984185E-025
  1.800000000000000E-002   -6.562660177961434E-026
  1.810000000000000E-002    3.185153345040690E-026
  1.820000000000000E-002    1.430466587720327E-025
  1.830000000000000E-002    2.597258872238120E-025
  1.840000000000000E-002    3.718470557564255E-025
  1.850000000000000E-002    4.682549740637078E-025
  1.860000000000000E-002    5.375867763382319E-025
  1.870000000000000E-002    5.693264595704915E-025