 -4.000000000000000E-002    0.000000000000000E+000
 -3.990000000000000E-002    0.000000000000000E+000
 -3.980000000000000E-002    0.000000000000000E+000
 -3.970000000000000E-002    0.000000000000000E+000
 -3.960000000000000E-002    0.000000000000000E+000
 -3.950000000000000E-002    0.000000000000000E+000
 -3.940000000000000E-002    0.000000000000000E+000
 -3.930000000000000E-002    0.000000000000000E+000
 -3.920000000000000E-002   -3.341259048449877E-028
 -3.910000000000000E-002   -5.027421822306402E-027
 -3.900000000000000E-002   -3.778076050863484E-026
 -3.890000000000000E-002   -1.867788176567003E-025
 -3.880000000000000E-002   -6.664720524932265E-025
 -3.870000000000000E-002   -1.728302569924817E-024
 -3.860000000000000E-002   -2.807348621408967E-024
 -3.850000000000000E-002    6.028775217678593E-025
 -3.840000000000000E-002    2.516617423677169E-023
 -3.830000000000000E-002    1.170020912210618E-022
 -3.820000000000000E-002    3.816670732445154E-022
 -3.810000000000000E-002    1.026019048598143E-021
 -3.800000000000000E-002    2.399744683685354E-021
 -3.790000000000000E-002    5.003622321952476E-021
 -3.780000000000000E-002    9.402462948164633E-021
 -3.770000000000000E-002    1.595009876922445E-020
 -3.760000000000000E-002    2.421739155270578E-020
 -3.750000000000000E-002    3.203683114770660E-020
 -3.740000000000000E-002    3.416919071237670E-020
 -3.730000000000000E-002    2.078522418844377E-020
 -3.720000000000000E-002   -2.375395753149322E-020
 -3.710000000000000E-002   -1.209714947261825E-019
 -3.700000000000000E-002   -2.960091930664205E-019
 -3.690000000000000E-002   -5.716410635338598E-019
 -3.680000000000000E-002   -9.573645059785967E-019
 -3.670000000000000E-002   -1.433126191197212E-018
 -3.660000000000000E-002   -1.928735325725831E-018
 -3.650000000000000E-002   -2.302264819494672E-018
 -3.640000000000000E-002   -2.323506006803407E-018
 -3.630000000000000E-002   -1.671268145488388E-018
 -3.620000000000000E-002    4.486608223422092E-020
 -3.610000000000000E-002    3.227950854809346E-018
 -3.600000000000000E-002    8.195283691796029E-018
 -3.590000000000000E-002    1.503866783854089E-017
 -3.580000000000000E-002    2.345538438206474E-017
 -3.570000000000000E-002    3.257661808018676E-017
 -3.560000000000000E-002    4.083545554755206E-017
 -3.550000000000000E-002    4.592881161719592E-017
 -3.540000000000000E-002    4.493176875112029E-017
 -3.530000000000000E-002    3.461393700825005E-017
 -3.520000000000000E-002    1.198155269199162E-017
 -3.510000000000000E-002   -2.497502049478733E-017
 -3.500000000000000E-002   -7.640768279833797E-017
 -3.490000000000000E-002   -1.397560348235306E-016
 -3.480000000000000E-002   -2.091158289835667E-016
 -3.470000000000000E-002   -2.750686859261397E-016
 -3.460000000000000E-002   -3.252020551574460E-016
 -3.450000000000000E-002   -3.454799016861046E-016
 -3.440000000000000E-002   -3.224900523545588E-016
 -3.430000000000000E-002   -2.463981767082929E-016
 -3.420000000000000E-002   -1.142061188655933E-016
 -3.410000000000000E-002    6.731645449840378E-017
 -3.400000000000000E-002    2.798273684229703E-016
 -3.390000000000000E-002    4.935809586744181E-016
 -3.380000000000000E-002    6.702838113400224E-016
 -3.370000000000000E-002    7.690030451376842E-016
 -3.360000000000000E-002    7.549267143529988E-016
 -3.350000000000000E-002    6.100499471611029E-016
 -3.340000000000000E-002    3.440693093279895E-016
 -3.330000000000000E-002    3.076450410228000E-018
 -3.320000000000000E-002   -3.267726916447900E-016
 -3.310000000000000E-002   -5.233793409795547E-016
 -3.300000000000000E-002   -4.427105464106219E-016
 -3.290000000000000E-002    5.656052709941104E-017
 -3.280000000000000E-002    1.079005829826398E-015
 -3.270000000000000E-002    2.652589529672200E-015
 -3.260000000000000E-002    4.689047155377613E-015
 -3.250000000000000E-002    6.952550985716467E-015
 -3.240000000000000E-002    9.045771980234568E-015
 -3.230000000000000E-002    1.042208218830082E-014
 -3.220000000000000E-002    1.043047274362359E-014
 -3.210000000000000E-002    8.395731147916499E-015
 -3.200000000000000E-002    3.730741505875119E-015
 -3.190000000000000E-002   -3.928900268541214E-015
 -3.180000000000000E-002   -1.458451671344168E-014
 -3.170000000000000E-002   -2.775035227535417E-014
 -3.160000000000000E-002   -4.237123167803582E-014
 -3.150000000000000E-002   -5.680671303501798E-014
 -3.140000000000000E-002   -6.890181904025649E-014
 -3.130000000000000E-002   -7.615529779638896E-014
 -3.120000000000000E-002   -7.598326670194334E-014
 -3.110000000000000E-002   -6.606081552101289E-014
 -3.100000000000000E-002   -4.470837948445071E-014
 -3.090000000000000E-002   -1.127631248235282E-014
 -3.080000000000000E-002    3.352741081811578E-014
 -3.070000000000000E-002    8.742306138914601E-014
 -3.060000000000000E-002    1.465081792860325E-013
 -3.050000000000000E-002    2.054040010157966E-013
 -3.040000000000000E-002    2.576105982315052E-013
 -3.030000000000000E-002    2.960548972356523E-013
 -3.020000000000000E-002    3.137874283093555E-013
 -3.010000000000000E-002    3.047587625489878E-013
 -3.000000000000000E-002    2.645904858925260E-013
 -2.990000000000000E-002    1.912488328305152E-013
 -2.980000000000000E-002    8.553699992340330E-014
 -2.970000000000000E-002   -4.865880362752984E-014
 -2.960000000000000E-002   -2.044046970203520E-013
 -2.950000000000000E-002   -3.720362477189832E-013
 -2.940000000000000E-002   -5.397232452808266E-013
 -2.930000000000000E-002   -6.942199430441920E-013
 -2.920000000000000E-002   -8.217217268843704E-013
 -2.910000000000000E-002   -9.087483481051393E-013
 -2.900000000000000E-002   -9.429858597373759E-013
 -2.890000000000000E-002   -9.140469130935481E-013
 -2.880000000000000E-002   -8.141383432277695E-013
 -2.870000000000000E-002   -6.386570791401351E-013
 -2.860000000000000E-002   -3.867539363250946E-013
 -2.850000000000000E-002   -6.190813598840369E-014
 -2.840000000000000E-002    3.274662162150628E-013
 -2.830000000000000E-002    7.673992906156276E-013
 -2.820000000000000E-002    1.237807960405774E-012
 -2.810000000000000E-002    1.712140897835553E-012
 -2.800000000000000E-002    2.157422276898241E-012
 -2.790000000000000E-002    2.534919480263841E-012
 -2.780000000000000E-002    2.801654966050757E-012
 -2.770000000000000E-002    2.912921684394589E-012
 -2.760000000000000E-002    2.825859021919049E-012
 -2.750000000000000E-002    2.503990158026412E-012
 -2.740000000000000E-002    1.922440437214440E-012
 -2.730000000000000E-002    1.073372293823782E-012
 -2.720000000000000E-002   -2.899162704239510E-014
 -2.710000000000000E-002   -1.344488089186987E-012
 -2.700000000000000E-002   -2.805028496517670E-012
 -2.690000000000000E-002   -4.315182784187791E-012
 -2.680000000000000E-002   -5.755813049881091E-012
 -2.670000000000000E-002   -6.990955296326326E-012
 -2.660000000000000E-002   -7.877782748397566E-012
 -2.650000000000000E-002   -8.279092832888592E-012
 -2.640000000000000E-002   -8.077380988085397E-012
 -2.630000000000000E-002   -7.189243588838619E-012
 -2.620000000000000E-002   -5.578644879089281E-012
 -2.610000000000000E-002   -3.267534583576578E-012
 -2.600000000000000E-002   -3.423907440940062E-013
 -2.590000000000000E-002    3.044456534173564E-012
 -2.580000000000000E-002    6.679456342138903E-012
 -2.570000000000000E-002    1.029863613607600E-011
 -2.560000000000000E-002    1.360420682631300E-011
 -2.550000000000000E-002    1.628604259758608E-011
 -2.540000000000000E-002    1.804658003657043E-011
 -2.530000000000000E-002    1.862728159137262E-011
 -2.520000000000000E-002    1.783453342941870E-011
 -2.510000000000000E-002    1.556276596883914E-011
 -2.500000000000000E-002    1.181265698957644E-011
 -2.490000000000000E-002    6.702519759629300E-012
 -2.480000000000000E-002    4.713787654983078E-013
 -2.470000000000000E-002   -6.527212587875146E-012
 -2.460000000000000E-002   -1.384098983890489E-011
 -2.450000000000000E-002   -2.094405852053907E-011
 -2.440000000000000E-002   -2.727018874431970E-011
 -2.430000000000000E-002   -3.225255218031088E-011
 -2.420000000000000E-002   -3.536746886365653E-011
 -2.410000000000000E-002   -3.617916946372699E-011
 -2.400000000000000E-002   -3.438221126983916E-011
 -2.390000000000000E-002   -2.983797112655672E-011
 -2.380000000000000E-002   -2.260169675488372E-011
 -2.370000000000000E-002   -1.293706466803301E-011
 -2.360000000000000E-002   -1.315783054817734E-012
 -2.350000000000000E-002    1.159912543160402E-011
 -2.340000000000000E-002    2.498653653738275E-011
 -2.330000000000000E-002    3.791565677157268E-011
 -2.320000000000000E-002    4.940698704624256E-011
 -2.310000000000000E-002    5.850179620553151E-011
 -2.300000000000000E-002    6.433505416697116E-011
 -2.290000000000000E-002    6.620612202694574E-011
 -2.280000000000000E-002    6.364145159650194E-011
 -2.270000000000000E-002    5.644386653683681E-011
 -2.260000000000000E-002    4.472408911669605E-011
 -2.250000000000000E-002    2.891152477544460E-011
 -2.240000000000000E-002    9.742969934609992E-012
 -2.230000000000000E-002   -1.177027288787557E-011
 -2.220000000000000E-002   -3.439480059129875E-011
 -2.210000000000000E-002   -5.674358378424608E-011
 -2.200000000000000E-002   -7.735615472715286E-011
 -2.190000000000000E-002   -9.478569689550936E-011
 -2.180000000000000E-002   -1.076882618247379E-010
 -2.170000000000000E-002   -1.149094829344726E-010
 -2.160000000000000E-002   -1.155649338542272E-010
 -2.150000000000000E-002   -1.091103689375599E-010
 -2.140000000000000E-002   -9.539865597644292E-011
 -2.130000000000000E-002   -7.472024961865877E-011
 -2.120000000000000E-002   -4.782364734969065E-011
 -2.110000000000000E-002   -1.591252095106858E-011
 -2.100000000000000E-002    1.938434468135181E-011
 -2.090000000000000E-002    5.607340996709415E-011
 -2.080000000000000E-002    9.188931585640700E-011
 -2.070000000000000E-002    1.244204151341274E-010
 -2.060000000000000E-002    1.512641090443372E-010
 -2.050000000000000E-002    1.702051771755796E-010
 -2.040000000000000E-002    1.794061574715392E-010
 -2.030000000000000E-002    1.775944001486893E-010
 -2.020000000000000E-002    1.642271532327349E-010
 -2.010000000000000E-002    1.396141564988932E-010
 -2.000000000000000E-002    1.049778949045348E-010
 -1.990000000000000E-002    6.243455041156932E-011
 -1.980000000000000E-002    1.488500857610521E-011
 -1.970000000000000E-002   -3.418587239673880E-011
 -1.960000000000000E-002   -8.099339172277655E-011
 -1.950000000000000E-002   -1.218005670077292E-010
 -1.940000000000000E-002   -1.532990244332690E-010
 -1.930000000000000E-002   -1.729846505780370E-010
 -1.920000000000000E-002   -1.794852272754995E-010
 -1.910000000000000E-002   -1.727974536484876E-010
 -1.900000000000000E-002   -1.543966371418387E-010
 -1.890000000000000E-002   -1.271926107645840E-010
 -1.880000000000000E-002   -9.532146417371953E-011
 -1.870000000000000E-002   -6.377932250809419E-011
 -1.860000000000000E-002   -3.792345927837242E-011
 -1.850000000000000E-002   -2.288266845295858E-011
 -1.840000000000000E-002   -2.293128779140898E-011
 -1.830000000000000E-002   -4.088883762846360E-011
 -1.820000000000000E-002   -7.760721382968639E-011
 -1.810000000000000E-002   -1.316013488312682E-010
 -1.800000000000000E-002   -1.988659330575030E-010
 -1.790000000000000E-002   -2.729039943606915E-010
 -1.780000000000000E-002   -3.449731203665019E-010
 -1.770000000000000E-002   -4.045357133349358E-010
 -1.760000000000000E-002   -4.398835849116222E-010
 -1.750000000000000E-002   -4.388934154264435E-010
 -1.740000000000000E-002   -3.898652513065079E-010
 -1.730000000000000E-002   -2.823939463577878E-010
 -1.720000000000000E-002   -1.082287776843129E-010
 -1.710000000000000E-002    1.379164960609397E-010
 -1.700000000000000E-002    4.576316927035043E-010
 -1.690000000000000E-002    8.481790114203090E-010
 -1.680000000000000E-002    1.301980031533391E-009
 -1.670000000000000E-002    1.806241670844532E-009
 -1.660000000000000E-002    2.342744486897170E-009
 -1.650000000000000E-002    2.887828870370810E-009
 -1.640000000000000E-002    3.412622997798509E-009
 -1.630000000000000E-002    3.883561971714322E-009
 -1.620000000000000E-002    4.263253948496831E-009
 -1.610000000000000E-002    4.511738490797170E-009
 -1.600000000000000E-002    4.588166362216141E-009
 -1.590000000000000E-002    4.452901430541078E-009
 -1.580000000000000E-002    4.070007502501892E-009
 -1.570000000000000E-002    3.410041211721446E-009
 -1.560000000000000E-002    2.453025612867613E-009
 -1.550000000000000E-002    1.191443238535347E-009
 -1.540000000000000E-002   -3.669377360466652E-010
 -1.530000000000000E-002   -2.196603165034633E-009
 -1.520000000000000E-002   -4.252379001573389E-009
 -1.510000000000000E-002   -6.468217051457838E-009
 -1.500000000000000E-002   -8.756772756948396E-009
 -1.490000000000000E-002   -1.100980898083403E-008
 -1.480000000000000E-002   -1.309937433477809E-008
 -1.470000000000000E-002   -1.487964111999214E-008
 -1.460000000000000E-002   -1.618922342485872E-008
 -1.450000000000000E-002   -1.685375877462531E-008
 -1.440000000000000E-002   -1.668852733814884E-008
 -1.430000000000000E-002   -1.550088320609499E-008
 -1.420000000000000E-002   -1.309234395989360E-008
 -1.410000000000000E-002   -9.260221707866916E-009
 -1.400000000000000E-002   -3.798780990219038E-009
 -1.390000000000000E-002    3.500020270974578E-009
 -1.380000000000000E-002    1.284607247726994E-008
 -1.370000000000000E-002    2.445076936151391E-008
 -1.360000000000000E-002    3.852655226911644E-008
 -1.350000000000000E-002    5.528617893473953E-008
 -1.340000000000000E-002    7.494152205506585E-008
 -1.330000000000000E-002    9.770189315443089E-008
 -1.320000000000000E-002    1.237718311795689E-007
 -1.310000000000000E-002    1.533485575613791E-007
 -1.300000000000000E-002    1.866191966484169E-007
 -1.290000000000000E-002    2.237581645292664E-007
 -1.280000000000000E-002    2.649249136619983E-007
 -1.270000000000000E-002    3.102623882198558E-007
 -1.260000000000000E-002    3.598966179414656E-007
 -1.250000000000000E-002    4.139373090195029E-007
 -1.240000000000000E-002    4.724798427901358E-007
 -1.230000000000000E-002    5.356086335137305E-007
 -1.220000000000000E-002    6.034016674825208E-007
 -1.210000000000000E-002    6.759357871330830E-007
 -1.200000000000000E-002    7.532927984175946E-007
 -1.190000000000000E-002    8.355660014049648E-007
 -1.180000000000000E-002    9.228664629431301E-007
 -1.170000000000000E-002    1.015329309731761E-006
 -1.160000000000000E-002    1.113119066928052E-006
 -1.150000000000000E-002    1.216434937442576E-006
 -1.140000000000000E-002    1.325514466738187E-006
 -1.130000000000000E-002    1.440637209320407E-006
 -1.120000000000000E-002    1.562127565866179E-006
 -1.110000000000000E-002    1.690356436773860E-006
 -1.100000000000000E-002    1.825743228144644E-006
 -1.090000000000000E-002    1.968757145162578E-006
 -1.080000000000000E-002    2.119918011082411E-006
 -1.070000000000000E-002    2.279796843853478E-006
 -1.060000000000000E-002    2.449016271783664E-006
 -1.050000000000000E-002    2.628249836089446E-006
 -1.040000000000000E-002    2.818222185430001E-006
 -1.030000000000000E-002    3.019706313542810E-006
 -1.020000000000000E-002    3.233521837959830E-006
 -1.010000000000000E-002    3.460531559637752E-006
 -1.000000000000000E-002    3.701637723227236E-006
 -9.899999999999999E-003    3.957777574988713E-006
 -9.800000000000000E-003    4.229917957093047E-006
 -9.699999999999999E-003    4.519052189562995E-006
 -9.599999999999999E-003    4.826194071084029E-006
 -9.500000000000000E-003    5.152377165762061E-006
 -9.399999999999999E-003    5.498652242805233E-006
 -9.299999999999999E-003    5.866088640283153E-006
 -9.200000000000000E-003    6.255778187094929E-006
 -9.099999999999999E-003    6.668839718102216E-006
 -8.999999999999999E-003    7.106428865218124E-006
 -8.900000000000000E-003    7.569747650921289E-006
 -8.799999999999999E-003    8.060059182745973E-006
 -8.699999999999999E-003    8.578698545863025E-006
 -8.600000000000000E-003    9.127089142155560E-006
 -8.499999999999999E-003    9.706756542197893E-006
 -8.399999999999999E-003    1.031933980027733E-005
 -8.300000000000000E-003    1.096660165810672E-005
 -8.199999999999999E-003    1.165043738258433E-005
 -8.100000000000000E-003    1.237287703485031E-005
 -8.000000000000000E-003    1.313608673102316E-005
 -7.899999999999999E-003    1.394236397023715E-005
 -7.800000000000000E-003    1.479413286512985E-005
 -7.699999999999999E-003    1.569393624769145E-005
 -7.599999999999999E-003    1.664442623444919E-005
 -7.499999999999999E-003    1.764835151130681E-005
 -7.399999999999999E-003    1.870855434304572E-005
 -7.299999999999999E-003    1.982795979084141E-005
 -7.199999999999999E-003    2.100957390007804E-005
 -7.100000000000000E-003    2.225649024146366E-005
 -6.999999999999999E-003    2.357188995742082E-005
 -6.899999999999999E-003    2.495905760311852E-005
 -6.800000000000000E-003    2.642139163456413E-005
 -6.699999999999999E-003    2.796243109057371E-005
 -6.599999999999999E-003    2.958586754352903E-005
 -6.499999999999999E-003    3.129557876598969E-005
 -6.399999999999999E-003    3.309564481456128E-005
 -6.299999999999999E-003    3.499036799209340E-005
 -6.199999999999999E-003    3.698430112597823E-005
 -6.100000000000000E-003    3.908225501045594E-005
 -5.999999999999999E-003    4.128931127787340E-005
 -5.899999999999999E-003    4.361084040445466E-005
 -5.800000000000000E-003    4.605248479265623E-005
 -5.699999999999999E-003    4.862017750426679E-005
 -5.599999999999999E-003    5.132012231994284E-005
 -5.499999999999999E-003    5.415880030462881E-005
 -5.399999999999999E-003    5.714295329073032E-005
 -5.299999999999999E-003    6.027957636382532E-005
 -5.199999999999999E-003    6.357591756349911E-005
 -5.099999999999999E-003    6.703947380669377E-005
 -4.999999999999999E-003    7.067798537035427E-005
 -4.899999999999999E-003    7.449944862183617E-005
 -4.799999999999999E-003    7.851211266817963E-005
 -4.699999999999999E-003    8.272451194845381E-005
 -4.599999999999999E-003    8.714547485422930E-005
 -4.499999999999999E-003    9.178415631525606E-005
 -4.399999999999999E-003    9.665004695511423E-005
 -4.299999999999999E-003    1.017530405594326E-004
 -4.199999999999999E-003    1.071034158100198E-004
 -4.099999999999999E-003    1.127119121705840E-004
 -3.999999999999999E-003    1.185897172026871E-004
 -3.899999999999999E-003    1.247485198396278E-004
 -3.799999999999999E-003    1.312004982269927E-004
 -3.699999999999999E-003    1.379583713344956E-004
 -3.599999999999999E-003    1.450353680570423E-004
 -3.499999999999999E-003    1.524452650074094E-004
 -3.399999999999999E-003    1.602023623858784E-004
 -3.299999999999999E-003    1.683214825120072E-004
 -3.199999999999999E-003    1.768179745595618E-004
 -3.099999999999999E-003    1.857077309209135E-004
 -2.999999999999999E-003    1.950071422229512E-004
 -2.899999999999999E-003    2.047331323053609E-004
 -2.799999999999999E-003    2.149031740188716E-004
 -2.699999999999999E-003    2.255352707738900E-004
 -2.599999999999999E-003    2.366480212647664E-004
 -2.499999999999999E-003    2.482606161749054E-004
 -2.399999999999999E-003    2.603928265328168E-004
 -2.299999999999999E-003    2.730651184346282E-004
 -2.199999999999999E-003    2.862986328176721E-004
 -2.099999999999999E-003    3.001151999738454E-004
 -1.999999999999999E-003    3.145373766138099E-004
 -1.899999999999999E-003    3.295884482653391E-004
 -1.799999999999999E-003    3.452924826808718E-004
 -1.699999999999999E-003    3.616743054910246E-004
 -1.599999999999999E-003    3.787595374626599E-004
 -1.499999999999999E-003    3.965745408201397E-004
 -1.399999999999999E-003    4.151465514033855E-004
 -1.299999999999999E-003    4.345035906368933E-004
 -1.199999999999999E-003    4.546745110542210E-004
 -1.099999999999999E-003    4.756889706492995E-004
 -9.999999999999989E-004    4.975775197378783E-004
 -8.999999999999990E-004    5.203716416789067E-004
 -7.999999999999990E-004    5.441036791602776E-004
 -6.999999999999989E-004    5.688069178922066E-004
 -5.999999999999990E-004    5.945156349601785E-004
 -4.999999999999989E-004    6.212650281086366E-004
 -3.999999999999989E-004    6.490912859488170E-004
 -2.999999999999989E-004    6.780316437545345E-004
 -1.999999999999989E-004    7.081243540401212E-004
 -9.999999999999892E-005    7.394086495761945E-004
  1.084202172485504E-018    7.719247310606746E-004
  1.000000000000011E-004    8.057138392460588E-004
  2.000000000000011E-004    8.408181672917807E-004
  3.000000000000011E-004    8.772809714374760E-004
  4.000000000000011E-004    9.151463870100977E-004
  5.000000000000011E-004    9.544596267998294E-004
  6.000000000000011E-004    9.952668588935445E-004
  7.000000000000011E-004    1.037615286034811E-003
  8.000000000000011E-004    1.081553115420524E-003
  9.000000000000012E-004    1.127129748259396E-003
  1.000000000000001E-003    1.174395435365696E-003
  1.100000000000001E-003    1.223401800689550E-003
  1.200000000000001E-003    1.274201432881822E-003
  1.300000000000001E-003    1.326848081122752E-003
  1.400000000000001E-003    1.381396597221097E-003
  1.500000000000001E-003    1.437903195999870E-003
  1.600000000000001E-003    1.496424972265318E-003
  1.700000000000001E-003    1.557020111279919E-003
  1.800000000000001E-003    1.619748041921492E-003
  1.900000000000001E-003    1.684669144315461E-003
  2.000000000000001E-003    1.751844916861979E-003
  2.100000000000001E-003    1.821337582288229E-003
  2.200000000000001E-003    1.893210574352077E-003
  2.300000000000001E-003    1.967528013960150E-003
  2.400000000000001E-003    2.044355120939753E-003
  2.500000000000001E-003    2.123758036482419E-003
  2.600000000000001E-003    2.205803637812731E-003
  2.700000000000001E-003    2.290560054549114E-003
  2.800000000000001E-003    2.378095971178360E-003
  2.900000000000001E-003    2.468481377445135E-003
  3.000000000000001E-003    2.561787142494143E-003
  3.100000000000001E-003    2.658084555061169E-003
  3.200000000000001E-003    2.757446542534793E-003
  3.300000000000001E-003    2.859946368880141E-003
  3.400000000000001E-003    2.965658319028714E-003
  3.500000000000001E-003    3.074657139829253E-003
  3.600000000000001E-003    3.187018188504552E-003
  3.700000000000001E-003    3.302817900367666E-003
  3.800000000000001E-003    3.422132621835058E-003
  3.900000000000001E-003    3.545038967999076E-003
  4.000000000000001E-003    3.671614424300607E-003
  4.100000000000001E-003    3.801936639496491E-003
  4.200000000000001E-003    3.936083376969071E-003
  4.300000000000001E-003    4.074132238117972E-003
  4.400000000000001E-003    4.216161379335262E-003
  4.500000000000001E-003    4.362249030784943E-003
  4.600000000000002E-003    4.512473432477962E-003
  4.700000000000001E-003    4.666912599873493E-003
  4.800000000000001E-003    4.825644586771940E-003
  4.900000000000002E-003    4.988748049828904E-003
  5.000000000000001E-003    5.156300463069614E-003
  5.100000000000001E-003    5.328379728749543E-003
  5.200000000000001E-003    5.505062582875968E-003
  5.300000000000002E-003    5.686426504117686E-003
  5.400000000000001E-003    5.872547060007698E-003
  5.500000000000001E-003    6.063499686667537E-003
  5.600000000000002E-003    6.259359134656775E-003
  5.700000000000001E-003    6.460198454788291E-003
  5.800000000000001E-003    6.666090266504728E-003
  5.900000000000002E-003    6.877105331286941E-003
  6.000000000000001E-003    7.093313927703203E-003
  6.100000000000001E-003    7.314783578903141E-003
  6.200000000000002E-003    7.541580914707208E-003
  6.300000000000002E-003    7.773770888856229E-003
  6.400000000000001E-003    8.011416071124790E-003
  6.500000000000001E-003    8.254577929291320E-003
  6.600000000000002E-003    8.503315017262930E-003
  6.700000000000001E-003    8.757684581437955E-003
  6.800000000000001E-003    9.017741437174787E-003
  6.900000000000002E-003    9.283537515536521E-003
  7.000000000000001E-003    9.555122392701005E-003
  7.100000000000001E-003    9.832542785335480E-003
  7.200000000000002E-003    1.011584327238672E-002
  7.300000000000002E-003    1.040506467591831E-002
  7.400000000000001E-003    1.070024523957387E-002
  7.500000000000001E-003    1.100141965239533E-002
  7.600000000000002E-003    1.130861950389167E-002
  7.700000000000001E-003    1.162187146652396E-002
  7.800000000000001E-003    1.194119972048353E-002
  7.900000000000001E-003    1.226662405492199E-002
  8.000000000000002E-003    1.259815964930163E-002
  8.100000000000001E-003    1.293581709766288E-002
  8.200000000000001E-003    1.327960268425205E-002
  8.300000000000002E-003    1.362951848769030E-002
  8.400000000000001E-003    1.398556069620032E-002
  8.500000000000002E-003    1.434772157879383E-002
  8.600000000000002E-003    1.471598680806040E-002
  8.700000000000001E-003    1.509033763012753E-002
  8.800000000000002E-003    1.547074884217869E-002
  8.900000000000002E-003    1.585719029944535E-002
  9.000000000000001E-003    1.624962525397001E-002
  9.100000000000002E-003    1.664801149286447E-002
  9.200000000000002E-003    1.705229970842129E-002
  9.300000000000001E-003    1.746243486317338E-002
  9.400000000000002E-003    1.787835490556592E-002
  9.500000000000001E-003    1.829999242826191E-002
  9.600000000000001E-003    1.872727183970933E-002
  9.700000000000002E-003    1.916011211647433E-002
  9.800000000000001E-003    1.959842379213602E-002
  9.900000000000001E-003    2.004211005297677E-002
  1.000000000000000E-002    2.049106718835657E-002
  1.010000000000000E-002    2.094518306820755E-002
  1.020000000000000E-002    2.140433817390304E-002
  1.030000000000000E-002    2.186840536598044E-002
  1.040000000000000E-002    2.233724955437297E-002
  1.050000000000000E-002    2.281072926479493E-002
  1.060000000000000E-002    2.328869002494045E-002
  1.070000000000000E-002    2.377097276721821E-002
  1.080000000000000E-002    2.425741017830532E-002
  1.090000000000000E-002    2.474782256170373E-002
  1.100000000000000E-002    2.524202535898794E-002
  1.110000000000000E-002    2.573982444587669E-002
  1.120000000000000E-002    2.624101302703502E-002
  1.130000000000000E-002    2.674537826242356E-002
  1.140000000000000E-002    2.725269603686557E-002
  1.150000000000000E-002    2.776273740052600E-002
  1.160000000000000E-002    2.827525871120662E-002
  1.170000000000000E-002    2.879001160487078E-002
  1.180000000000000E-002    2.930673521390358E-002
  1.190000000000000E-002    2.982516006337261E-002
  1.200000000000000E-002    3.034500865791156E-002
  1.210000000000000E-002    3.086599174788058E-002
  1.220000000000000E-002    3.138781222208545E-002
  1.230000000000000E-002    3.191016808163891E-002
  1.240000000000000E-002    3.243273908209597E-002
  1.250000000000000E-002    3.295520307813467E-002
  1.260000000000000E-002    3.347722722279835E-002
  1.270000000000000E-002    3.399846495390241E-002
  1.280000000000000E-002    3.451856830682803E-002
  1.290000000000000E-002    3.503717296496357E-002
  1.300000000000000E-002    3.555390754207691E-002
  1.310000000000000E-002    3.606839264869924E-002
  1.320000000000000E-002    3.658023968809648E-002
  1.330000000000000E-002    3.708905049103191E-002
  1.340000000000000E-002    3.759442028809506E-002
  1.350000000000000E-002    3.809593001861555E-002
  1.360000000000000E-002    3.859315606819579E-002
  1.370000000000000E-002    3.908566778653957E-002
  1.380000000000000E-002    3.957302428038519E-002
  1.390000000000000E-002    4.005477727997363E-002
  1.400000000000000E-002    4.053047138761331E-002
  1.410000000000000E-002    4.099964403013068E-002
  1.420000000000000E-002    4.146182902610466E-002
  1.430000000000000E-002    4.191655034500744E-002
  1.440000000000000E-002    4.236332540687938E-002
  1.450000000000000E-002    4.280166078290543E-002
  1.460000000000000E-002    4.323106628833137E-002
  1.470000000000000E-002    4.365104013423907E-002
  1.480000000000000E-002    4.406107976178007E-002
  1.490000000000000E-002    4.446066849350391E-002
  1.500000000000000E-002    4.484929464828517E-002
  1.510000000000000E-002    4.522643570492203E-002
  1.520000000000000E-002    4.559156817647006E-002
  1.530000000000000E-002    4.594416387630734E-002
  1.540000000000000E-002    4.628369345651373E-002
  1.550000000000000E-002    4.660962199415705E-002
  1.560000000000000E-002    4.692140917169547E-002
  1.570000000000000E-002    4.721852132583816E-002
  1.580000000000000E-002    4.750041552654617E-002
  1.590000000000000E-002    4.776655002502871E-002
  1.600000000000000E-002    4.801638358640625E-002
  1.610000000000000E-002    4.824937210571713E-002
  1.620000000000000E-002    4.846497288004805E-002
  1.630000000000000E-002    4.866264672203991E-002
  1.640000000000000E-002    4.884184827216009E-002
  1.650000000000000E-002    4.900204075711387E-002
  1.660000000000000E-002    4.914268942182345E-002
  1.670000000000000E-002    4.926326150939869E-002
  1.680000000000000E-002    4.936322467819444E-002
  1.690000000000000E-002    4.944205245253405E-002
  1.700000000000000E-002    4.949922074693636E-002
  1.710000000000000E-002    4.953421797225078E-002
  1.720000000000000E-002    4.954652863288956E-002
  1.730000000000000E-002    4.953565219294511E-002
  1.740000000000000E-002    4.950108623508085E-002
  1.750000000000000E-002    4.944234491891995E-002
  1.760000000000000E-002    4.935893813094649E-002
  1.770000000000000E-002    4.925039734407903E-002
  1.780000000000000E-002    4.911625353571750E-002
  1.790000000000000E-002    4.895605166071337E-002
  1.800000000000000E-002    4.876934410083452E-002
  1.810000000000000E-002    4.855569435213478E-002
  1.820000000000000E-002    4.831467966517781E-002
  1.830000000000000E-002    4.804588070360048E-002
  1.840000000000000E-002    4.774890028871372E-002
  1.850000000000000E-002    4.742335201652875E-002
  1.860000000000000E-002    4.706885795396300E-002
  1.870000000000000E-002    4.668506154762556E-002