 -4.000000000000000E-002    0.000000000000000E+000
 -3.990000000000000E-002    0.000000000000000E+000
 -3.980000000000000E-002    0.000000000000000E+000
 -3.970000000000000E-002    0.000000000000000E+000
 -3.960000000000000E-002    0.000000000000000E+000
 -3.950000000000000E-002    0.000000000000000E+000
 -3.940000000000000E-002    0.000000000000000E+000
 -3.930000000000000E-002    0.000000000000000E+000
 -3.920000000000000E-002    0.000000000000000E+000
 -3.910000000000000E-002    0.000000000000000E+000
 -3.900000000000000E-002    0.000000000000000E+000
 -3.890000000000000E-002    0.000000000000000E+000
 -3.880000000000000E-002    0.000000000000000E+000
 -3.870000000000000E-002   -9.301792038321711E-040
 -3.860000000000000E-002   -2.264793037255672E-038
 -3.850000000000000E-002   -2.827408951524712E-037
 -3.840000000000000E-002   -2.408334629141612E-036
 -3.830000000000000E-002   -1.571478695060555E-035
 -3.820000000000000E-002   -8.362266119967743E-035
 -3.810000000000000E-002   -3.772131889409377E-034
 -3.800000000000000E-002   -1.480327785867707E-033
 -3.790000000000000E-002   -5.146446388808682E-033
 -3.780000000000000E-002   -1.605534859867734E-032
 -3.770000000000000E-002   -4.534947871592358E-032
 -3.760000000000000E-002   -1.166277398617720E-031
 -3.750000000000000E-002   -2.737255317322294E-031
 -3.740000000000000E-002   -5.853072423100869E-031
 -3.730000000000000E-002   -1.131466813226077E-030
 -3.720000000000000E-002   -1.939400693750677E-030
 -3.710000000000000E-002   -2.807897545062470E-030
 -3.700000000000000E-002   -2.929124749754696E-030
 -3.690000000000000E-002   -1.989220579834691E-031
 -3.680000000000000E-002    9.858086341943155E-030
 -3.670000000000000E-002    3.547081719799896E-029
 -3.660000000000000E-002    8.988073878170384E-029
 -3.650000000000000E-002    1.914093520866554E-028
 -3.640000000000000E-002    3.603176743421630E-028
 -3.630000000000000E-002    6.093010455984818E-028
 -3.620000000000000E-002    9.235151577081812E-028
 -3.610000000000000E-002    1.226037231350981E-027
 -3.600000000000000E-002    1.326827332040066E-027
 -3.590000000000000E-002    8.590935363414701E-028
 -3.580000000000000E-002   -7.820521734626766E-028
 -3.570000000000000E-002   -4.466939649121345E-027
 -3.560000000000000E-002   -1.127155453492044E-026
 -3.550000000000000E-002   -2.225592069118008E-026
 -3.540000000000000E-002   -3.799321476300666E-026
 -3.530000000000000E-002   -5.777214077753979E-026
 -3.520000000000000E-002   -7.844554211126212E-026
 -3.510000000000000E-002   -9.300703606784463E-026
 -3.500000000000000E-002   -8.915648311829980E-026
 -3.490000000000000E-002   -4.835957192995578E-026
 -3.480000000000000E-002    5.381419809861336E-026
 -3.470000000000000E-002    2.450464554734947E-025
 -3.460000000000000E-002    5.501887451824706E-025
 -3.450000000000000E-002    9.808056068103280E-025
 -3.440000000000000E-002    1.520035913992718E-024
 -3.430000000000000E-002    2.103671394959754E-024
 -3.420000000000000E-002    2.600157637243718E-024
 -3.410000000000000E-002    2.794501959729088E-024
 -3.400000000000000E-002    2.383463223483502E-024
 -3.390000000000000E-002    9.912855134510569E-025
 -3.380000000000000E-002   -1.784234821062619E-024
 -3.370000000000000E-002   -6.287370382498827E-024
 -3.360000000000000E-002   -1.267882353030072E-023
 -3.350000000000000E-002   -2.077463266985719E-023
 -3.340000000000000E-002   -2.986766385925474E-023
 -3.330000000000000E-002   -3.856413262083678E-023
 -3.320000000000000E-002   -4.468163068926902E-023
 -3.310000000000000E-002   -4.526512446667994E-023
 -3.300000000000000E-002   -3.677875029631819E-023
 -3.290000000000000E-002   -1.551989536508910E-023
 -3.280000000000000E-002    2.172519627605515E-023
 -3.270000000000000E-002    7.680838443517374E-023
 -3.260000000000000E-002    1.492088961596416E-022
 -3.250000000000000E-002    2.350244889025875E-022
 -3.240000000000000E-002    3.261554600231621E-022
 -3.230000000000000E-002    4.099000909748185E-022
 -3.220000000000000E-002    4.691701034273336E-022
 -3.210000000000000E-002    4.834760520169981E-022
 -3.200000000000000E-002    4.307273768743687E-022
 -3.190000000000000E-002    2.897505019455973E-022
 -3.180000000000000E-002    4.328156914748273E-023
 -3.170000000000000E-002   -3.189244222637635E-022
 -3.160000000000000E-002   -7.972630009165918E-022
 -3.150000000000000E-002   -1.380044684234186E-021
 -3.140000000000000E-002   -2.041966451933143E-021
 -3.130000000000000E-002   -2.743093509661203E-021
 -3.120000000000000E-002   -3.427818536802575E-021
 -3.110000000000000E-002   -4.023029546061037E-021
 -3.100000000000000E-002   -4.434736122968369E-021
 -3.090000000000000E-002   -4.542849066546395E-021
 -3.080000000000000E-002   -4.194777205992602E-021
 -3.070000000000000E-002   -3.200020440328763E-021
 -3.060000000000000E-002   -1.329805985712962E-021
 -3.050000000000000E-002    1.672336989341845E-021
 -3.040000000000000E-002    6.061931402675815E-021
 -3.030000000000000E-002    1.203984156055623E-020
 -3.020000000000000E-002    1.966879593498524E-020
 -3.010000000000000E-002    2.876047556262855E-020
 -3.000000000000000E-002    3.874149223306213E-020
 -2.990000000000000E-002    4.851705862357541E-020
 -2.980000000000000E-002    5.636275676506329E-020
 -2.970000000000000E-002    5.988534222437056E-020
 -2.960000000000000E-002    5.609993469489479E-020
 -2.950000000000000E-002    4.166976014442495E-020
 -2.940000000000000E-002    1.334266868280223E-020
 -2.930000000000000E-002   -3.140617075673452E-020
 -2.920000000000000E-002   -9.355415787953953E-020
 -2.910000000000000E-002   -1.716108320411171E-019
 -2.900000000000000E-002   -2.607278049656651E-019
 -2.890000000000000E-002   -3.520181552099120E-019
 -2.880000000000000E-002   -4.322973326903822E-019
 -2.870000000000000E-002   -4.844619654879257E-019
 -2.860000000000000E-002   -4.886872550540441E-019
 -2.850000000000000E-002   -4.245423324642492E-019
 -2.840000000000000E-002   -2.739942297739262E-019
 -2.830000000000000E-002   -2.510608668689279E-020
 -2.820000000000000E-002    3.239482315639196E-019
 -2.810000000000000E-002    7.611039244036766E-019
 -2.800000000000000E-002    1.257537404237616E-018
 -2.790000000000000E-002    1.766435089754883E-018
 -2.780000000000000E-002    2.224058736893974E-018
 -2.770000000000000E-002    2.553572591124212E-018
 -2.760000000000000E-002    2.671781203571675E-018
 -2.750000000000000E-002    2.498507436129843E-018
 -2.740000000000000E-002    1.967877405070844E-018
 -2.730000000000000E-002    1.040338955463179E-018
 -2.720000000000000E-002   -2.860951799827793E-019
 -2.710000000000000E-002   -1.967034571114364E-018
 -2.700000000000000E-002   -3.906896010541221E-018
 -2.690000000000000E-002   -5.959296397516213E-018
 -2.680000000000000E-002   -7.933274261337651E-018
 -2.670000000000000E-002   -9.605212487993412E-018
 -2.660000000000000E-002   -1.073555785330951E-017
 -2.650000000000000E-002   -1.108875493439090E-017
 -2.640000000000000E-002   -1.045443139742446E-017
 -2.630000000000000E-002   -8.667822323957763E-018
 -2.620000000000000E-002   -5.627824765361841E-018
 -2.610000000000000E-002   -1.311814913457913E-018
 -2.600000000000000E-002    4.212716262968836E-018
 -2.590000000000000E-002    1.077876597145006E-017
 -2.580000000000000E-002    1.811122156955424E-017
 -2.570000000000000E-002    2.581780600371992E-017
 -2.560000000000000E-002    3.337931352185818E-017
 -2.550000000000000E-002    4.014080817864393E-017
 -2.540000000000000E-002    4.530805557401531E-017
 -2.530000000000000E-002    4.795621204663672E-017
 -2.520000000000000E-002    4.706003892214607E-017
 -2.510000000000000E-002    4.155580722533858E-017
 -2.500000000000000E-002    3.044359844383614E-017
 -2.490000000000000E-002    1.293450330664096E-017
 -2.480000000000000E-002   -1.136016549194533E-017
 -2.470000000000000E-002   -4.221061985955327E-017
 -2.460000000000000E-002   -7.854590482833685E-017
 -2.450000000000000E-002   -1.182627799299590E-016
 -2.440000000000000E-002   -1.581110232575497E-016
 -2.430000000000000E-002   -1.937036202571523E-016
 -2.420000000000000E-002   -2.196960611969975E-016
 -2.410000000000000E-002   -2.301659983687457E-016
 -2.400000000000000E-002   -2.192013128651028E-016
 -2.390000000000000E-002   -1.816734506755354E-016
 -2.380000000000000E-002   -1.141367256016669E-016
 -2.370000000000000E-002   -1.575743328820068E-017
 -2.360000000000000E-002    1.108539814303794E-016
 -2.350000000000000E-002    2.590521211647826E-016
 -2.340000000000000E-002    4.179514974873962E-016
 -2.330000000000000E-002    5.727278069979975E-016
 -2.320000000000000E-002    7.054991335461750E-016
 -2.310000000000000E-002    7.967932094027647E-016
 -2.300000000000000E-002    8.275226631928869E-016
 -2.290000000000000E-002    7.813058600813499E-016
 -2.280000000000000E-002    6.468909626069257E-016
 -2.270000000000000E-002    4.203877787381619E-016
 -2.260000000000000E-002    1.069914166111474E-016
 -2.250000000000000E-002   -2.780954344604360E-016
 -2.240000000000000E-002   -7.097649167346257E-016
 -2.230000000000000E-002   -1.154245463243516E-015
 -2.220000000000000E-002   -1.571457528906726E-015
 -2.210000000000000E-002   -1.918310333930382E-015
 -2.200000000000000E-002   -2.152630066313758E-015
 -2.190000000000000E-002   -2.237308481645042E-015
 -2.180000000000000E-002   -2.144212382253690E-015
 -2.170000000000000E-002   -1.857415927996339E-015
 -2.160000000000000E-002   -1.375398641995845E-015
 -2.150000000000000E-002   -7.119964045260512E-016
 -2.140000000000000E-002    1.039354313964157E-016
 -2.130000000000000E-002    1.030010148595193E-015
 -2.120000000000000E-002    2.012667657370774E-015
 -2.110000000000000E-002    2.990039910445181E-015
 -2.100000000000000E-002    3.894956664800332E-015
 -2.090000000000000E-002    4.657821942415106E-015
 -2.080000000000000E-002    5.209244277576896E-015
 -2.070000000000000E-002    5.482518405363981E-015
 -2.060000000000000E-002    5.416246628238891E-015
 -2.050000000000000E-002    4.957528156384145E-015
 -2.040000000000000E-002    4.066165936856158E-015
 -2.030000000000000E-002    2.720209622389560E-015
 -2.020000000000000E-002    9.228631569102525E-016
 -2.010000000000000E-002   -1.289648766726744E-015
 -2.000000000000000E-002   -3.840162083102136E-015
 -1.990000000000000E-002   -6.604027033789286E-015
 -1.980000000000000E-002   -9.405708546303424E-015
 -1.970000000000000E-002   -1.202047166622728E-014
 -1.960000000000000E-002   -1.418288001030641E-014
 -1.950000000000000E-002   -1.560327099959856E-014
 -1.940000000000000E-002   -1.599240812351398E-014
 -1.930000000000000E-002   -1.509328073538550E-014
 -1.920000000000000E-002   -1.271758953893794E-014
 -1.910000000000000E-002   -8.783130981341893E-015
 -1.900000000000000E-002   -3.347233755599881E-015
 -1.890000000000000E-002    3.369145609749478E-015
 -1.880000000000000E-002    1.097187377813250E-014
 -1.870000000000000E-002    1.890286288676654E-014
 -1.860000000000000E-002    2.647049885281630E-014
 -1.850000000000000E-002    3.290123771701277E-014
 -1.840000000000000E-002    3.740952160284390E-014
 -1.830000000000000E-002    3.928022505062070E-014
 -1.820000000000000E-002    3.795542045419075E-014
 -1.810000000000000E-002    3.311549730353763E-014
 -1.800000000000000E-002    2.474417151866114E-014
 -1.790000000000000E-002    1.316771875683210E-014
 -1.780000000000000E-002   -9.390370659242808E-016
 -1.770000000000000E-002   -1.658405215028441E-014
 -1.760000000000000E-002   -3.252657148978207E-014
 -1.750000000000000E-002   -4.737806525888326E-014
 -1.740000000000000E-002   -5.972667626339031E-014
 -1.730000000000000E-002   -6.827284750441325E-014
 -1.720000000000000E-002   -7.196188507219787E-014
 -1.710000000000000E-002   -7.009897319603053E-014
 -1.700000000000000E-002   -6.243374267160489E-014
 -1.690000000000000E-002   -4.920483344841651E-014
 -1.680000000000000E-002   -3.113918103303548E-014
 -1.670000000000000E-002   -9.405966223469712E-015
 -1.660000000000000E-002    1.446992778597223E-014
 -1.650000000000000E-002    3.872601692207457E-014
 -1.640000000000000E-002    6.149990000664465E-014
 -1.630000000000000E-002    8.097358465423902E-014
 -1.620000000000000E-002    9.551190822131599E-014
 -1.610000000000000E-002    1.037845544127062E-013
 -1.600000000000000E-002    1.048642345290117E-013
 -1.590000000000000E-002    9.829689662340770E-014
 -1.580000000000000E-002    8.414291826806598E-014
 -1.570000000000000E-002    6.299051728894936E-014
 -1.560000000000000E-002    3.594347920278498E-014
 -1.550000000000000E-002    4.585194505444989E-015
 -1.540000000000000E-002   -2.908040561221174E-014
 -1.530000000000000E-002   -6.271212312452748E-014
 -1.520000000000000E-002   -9.374146238507673E-014
 -1.510000000000000E-002   -1.195123232700464E-013
 -1.500000000000000E-002   -1.374522150905870E-013
 -1.490000000000000E-002   -1.452735330878925E-013
 -1.480000000000000E-002   -1.411983511570711E-013
 -1.470000000000000E-002   -1.241935459926978E-013
 -1.460000000000000E-002   -9.419601170961257E-014
 -1.450000000000000E-002   -5.230141916529220E-014
 -1.440000000000000E-002   -8.856324119764489E-016
 -1.430000000000000E-002    5.637276860579249E-014
 -1.420000000000000E-002    1.145969432076851E-013
 -1.410000000000000E-002    1.679628348926708E-013
 -1.400000000000000E-002    2.101030581811890E-013
 -1.390000000000000E-002    2.346534697624877E-013
 -1.380000000000000E-002    2.359124128300631E-013
 -1.370000000000000E-002    2.095639141035520E-013
 -1.360000000000000E-002    1.533985361500995E-013
 -1.350000000000000E-002    6.795352701555670E-014
 -1.340000000000000E-002   -4.301281732242671E-014
 -1.330000000000000E-002   -1.722936498056699E-013
 -1.320000000000000E-002   -3.093235493660473E-013
 -1.310000000000000E-002   -4.406342445758906E-013
 -1.300000000000000E-002   -5.506955170277708E-013
 -1.290000000000000E-002   -6.231234533914754E-013
 -1.280000000000000E-002   -6.421983856701730E-013
 -1.270000000000000E-002   -5.945937117892758E-013
 -1.260000000000000E-002   -4.711784218006781E-013
 -1.250000000000000E-002   -2.687265923086094E-013
 -1.240000000000000E-002    8.653951686314940E-015
 -1.230000000000000E-002    3.485623474234037E-013
 -1.220000000000000E-002    7.299931749434094E-013
 -1.210000000000000E-002    1.123813564026106E-012
 -1.200000000000000E-002    1.494117785485488E-012
 -1.190000000000000E-002    1.800475743881626E-012
 -1.180000000000000E-002    2.001004352084601E-012
 -1.170000000000000E-002    2.056098104466643E-012
 -1.160000000000000E-002    1.932564590598935E-012
 -1.150000000000000E-002    1.607826566614827E-012
 -1.140000000000000E-002    1.073791544030481E-012
 -1.130000000000000E-002    3.399702449504700E-013
 -1.120000000000000E-002   -5.645747826946356E-013
 -1.110000000000000E-002   -1.590796829797010E-012
 -1.100000000000000E-002   -2.671009254749385E-012
 -1.090000000000000E-002   -3.722107159464194E-012
 -1.080000000000000E-002   -4.650613263383703E-012
 -1.070000000000000E-002   -5.359299700116743E-012
 -1.060000000000000E-002   -5.754960544907089E-012
 -1.050000000000000E-002   -5.756764354000360E-012
 -1.040000000000000E-002   -5.304503259316037E-012
 -1.030000000000000E-002   -4.366011903499272E-012
 -1.020000000000000E-002   -2.943050277144195E-012
 -1.010000000000000E-002   -1.075049671792493E-012
 -1.000000000000000E-002    1.159742406869848E-012
 -9.899999999999999E-003    3.645966438751809E-012
 -9.800000000000000E-003    6.235724863949382E-012
 -9.699999999999999E-003    8.755846311661683E-012
 -9.599999999999999E-003    1.101742678405528E-011
 -9.500000000000000E-003    1.282711324210070E-011
 -9.399999999999999E-003    1.399948612777038E-011
 -9.299999999999999E-003    1.436985766951031E-011
 -9.200000000000000E-003    1.380681197352316E-011
 -9.099999999999999E-003    1.222387417208578E-011
 -8.999999999999999E-003    9.589724318215155E-012
 -8.900000000000000E-003    5.936446982045560E-012
 -8.799999999999999E-003    1.365309210477899E-012
 -8.699999999999999E-003   -3.950442186943959E-012
 -8.600000000000000E-003   -9.766287245783067E-012
 -8.499999999999999E-003   -1.577121056351682E-011
 -8.399999999999999E-003   -2.159710245900623E-011
 -8.300000000000000E-003   -2.683321637640561E-011
 -8.199999999999999E-003   -3.104599053483187E-011
 -8.100000000000000E-003   -3.380405702243719E-011
 -8.000000000000000E-003   -3.470793123367149E-011
 -7.899999999999999E-003   -3.342312550622574E-011
 -7.800000000000000E-003   -2.971482427764830E-011
 -7.699999999999999E-003   -2.348154043845221E-011
 -7.599999999999999E-003   -1.478460030015980E-011
 -7.499999999999999E-003   -3.870064545341593E-012
 -7.399999999999999E-003    8.820463590391815E-012
 -7.299999999999999E-003    2.265314534377667E-011
 -7.199999999999999E-003    3.682151360776126E-011
 -7.100000000000000E-003    5.038341695848461E-011
 -6.999999999999999E-003    6.231456395751214E-011
 -6.899999999999999E-003    7.157631649609562E-011
 -6.800000000000000E-003    7.719350705988287E-011
 -6.699999999999999E-003    7.833666164747888E-011
 -6.599999999999999E-003    7.440172552621414E-011
 -6.499999999999999E-003    6.508013003864979E-011
 -6.399999999999999E-003    5.041212576796521E-011
 -6.299999999999999E-003    3.081738428390735E-011
 -6.199999999999999E-003    7.098643437861816E-012
 -6.100000000000000E-003   -1.958372993571971E-011
 -5.999999999999999E-003   -4.776570905272665E-011
 -5.899999999999999E-003   -7.575905169534181E-011
 -5.800000000000000E-003   -1.017510222137158E-010
 -5.699999999999999E-003   -1.239172057800798E-010
 -5.599999999999999E-003   -1.405394372061183E-010
 -5.499999999999999E-003   -1.501206562802548E-010
 -5.399999999999999E-003   -1.514889519809290E-010
 -5.299999999999999E-003   -1.438844764075689E-010
 -5.199999999999999E-003   -1.270244198383392E-010
 -5.099999999999999E-003   -1.011433436442762E-010
 -4.999999999999999E-003   -6.700745256596544E-011
 -4.899999999999999E-003   -2.590320484552243E-011
 -4.799999999999999E-003    2.039877392354072E-011
 -4.699999999999999E-003    6.970289693896696E-011
 -4.599999999999999E-003    1.194694904275142E-010
 -4.499999999999999E-003    1.669161602354128E-010
 -4.399999999999999E-003    2.091383682323175E-010
 -4.299999999999999E-003    2.432478539159131E-010
 -4.199999999999999E-003    2.665267670594507E-010
 -4.099999999999999E-003    2.765935167649442E-010
 -3.999999999999999E-003    2.715745052326431E-010
 -3.899999999999999E-003    2.502729452797654E-010
 -3.799999999999999E-003    2.123233299537086E-010
 -3.699999999999999E-003    1.583178751458336E-010
 -3.599999999999999E-003    8.988988029236471E-011
 -3.499999999999999E-003    9.739262825690958E-012
 -3.399999999999999E-003   -7.841261255265184E-011
 -3.299999999999999E-003   -1.699470815408204E-010
 -3.199999999999999E-003   -2.595542261637760E-010
 -3.099999999999999E-003   -3.415158899570442E-010
 -2.999999999999999E-003   -4.100526151526931E-010
 -2.899999999999999E-003   -4.597139246052946E-010
 -2.799999999999999E-003   -4.857847503583961E-010
 -2.699999999999999E-003   -4.846754957649978E-010
 -2.599999999999999E-003   -4.542631499325711E-010
 -2.499999999999999E-003   -3.941514997441291E-010
 -2.399999999999999E-003   -3.058242775807928E-010
 -2.299999999999999E-003   -1.926731507036717E-010
 -2.199999999999999E-003   -5.989255235689900E-011
 -2.099999999999999E-003    8.575524514452194E-011
 -1.999999999999999E-003    2.362904803241850E-010
 -1.899999999999999E-003    3.829583043125332E-010
 -1.799999999999999E-003    5.167323546891314E-010
 -1.699999999999999E-003    6.288456985218078E-010
 -1.599999999999999E-003    7.113150502152614E-010
 -1.499999999999999E-003    7.574270221456779E-010
 -1.399999999999999E-003    7.621610406499101E-010
 -1.299999999999999E-003    7.225295743687967E-010
 -1.199999999999999E-003    6.378248932046637E-010
 -1.099999999999999E-003    5.097657591870987E-010
 -9.999999999999989E-004    3.425434326813567E-010
 -8.999999999999990E-004    1.427673882577277E-010
 -7.999999999999990E-004   -8.068754509251645E-011
 -6.999999999999989E-004   -3.169343987615749E-010
 -5.999999999999990E-004   -5.534281887087246E-010
 -4.999999999999989E-004   -7.764251857745691E-010
 -3.999999999999989E-004   -9.715491706759179E-010
 -2.999999999999989E-004   -1.124461835488641E-009
 -1.999999999999989E-004   -1.221628119392383E-009
 -9.999999999999892E-005   -1.251155050288227E-009
  1.084202172485504E-018   -1.203670285637424E-009
  1.000000000000011E-004   -1.073192435558768E-009
  2.000000000000011E-004   -8.579323591273813E-010
  3.000000000000011E-004   -5.609560423931292E-010
  4.000000000000011E-004   -1.906365723443263E-010
  5.000000000000011E-004    2.391723500066762E-010
  6.000000000000011E-004    7.092983384035032E-010
  7.000000000000011E-004    1.195782627838809E-009
  8.000000000000011E-004    1.670792759181421E-009
  9.000000000000012E-004    2.103894443453733E-009
  1.000000000000001E-003    2.463631356442196E-009
  1.100000000000001E-003    2.719331698242212E-009
  1.200000000000001E-003    2.843040122716647E-009
  1.300000000000001E-003    2.811458535806329E-009
  1.400000000000001E-003    2.607776407388157E-009
  1.500000000000001E-003    2.223278782796595E-009
  1.600000000000001E-003    1.658639262379438E-009
  1.700000000000001E-003    9.248267823489871E-010
  1.800000000000001E-003    4.359089295666072E-011
  1.900000000000001E-003   -9.524858141814731E-010
  2.000000000000001E-003   -2.020348022083123E-009
  2.100000000000001E-003   -3.107195422094760E-009
  2.200000000000001E-003   -4.151522598800097E-009
  2.300000000000001E-003   -5.084411175892220E-009
  2.400000000000001E-003   -5.831005212900312E-009
  2.500000000000001E-003   -6.312119532157717E-009
  2.600000000000001E-003   -6.445935380939604E-009
  2.700000000000001E-003   -6.149740346088066E-009
  2.800000000000001E-003   -5.341688325666919E-009
  2.900000000000001E-003   -3.942554225353506E-009
  3.000000000000001E-003   -1.877426823804160E-009
  3.100000000000001E-003    9.226847110652602E-010
  3.200000000000001E-003    4.519400113153830E-009
  3.300000000000001E-003    8.965780787502577E-009
  3.400000000000001E-003    1.430544559000403E-008
  3.500000000000001E-003    2.057214388536372E-008
  3.600000000000001E-003    2.778982402123569E-008
  3.700000000000001E-003    3.597330188049367E-008
  3.800000000000001E-003    4.512955934779366E-008
  3.900000000000001E-003    5.525965515772154E-008
  4.000000000000001E-003    6.636122396353544E-008
  4.100000000000001E-003    7.843137394864204E-008
  4.200000000000001E-003    9.146996499517209E-008
  4.300000000000001E-003    1.054828706485388E-007
  4.400000000000001E-003    1.204852509883071E-007
  4.500000000000001E-003    1.365043738976628E-007
  4.600000000000002E-003    1.535819958702869E-007
  4.700000000000001E-003    1.717760359956026E-007
  4.800000000000001E-003    1.911614587421729E-007
  4.900000000000002E-003    2.118304337654407E-007
  5.000000000000001E-003    2.338917168913435E-007
  5.100000000000001E-003    2.574694158485154E-007
  5.200000000000001E-003    2.827013809121812E-007
  5.300000000000002E-003    3.097373023448307E-007
  5.400000000000001E-003    3.387368669830785E-007
  5.500000000000001E-003    3.698680266473441E-007
  5.600000000000002E-003    4.033056748725669E-007
  5.700000000000001E-003    4.392308066490865E-007
  5.800000000000001E-003    4.778302021620918E-007
  5.900000000000002E-003    5.192966464556742E-007
  6.000000000000001E-003    5.638294629988333E-007
  6.100000000000001E-003    6.116356322843555E-007
  6.200000000000002E-003    6.629309037313219E-007
  6.300000000000002E-003    7.179410353068577E-007
  6.400000000000001E-003    7.769029724865119E-007
  6.500000000000001E-003    8.400656352036955E-007
  6.600000000000002E-003    9.076909004543556E-007
  6.700000000000001E-003    9.800535717081780E-007
  6.800000000000001E-003    1.057441768483700E-006
  6.900000000000002E-003    1.140156566246304E-006
  7.000000000000001E-003    1.228511830522702E-006
  7.100000000000001E-003    1.322833539003068E-006
  7.200000000000002E-003    1.423459354595757E-006
  7.300000000000002E-003    1.530738167507135E-006
  7.400000000000001E-003    1.645029157534743E-006
  7.500000000000001E-003    1.766702011909444E-006
  7.600000000000002E-003    1.896136327036846E-006
  7.700000000000001E-003    2.033721521511119E-006
  7.800000000000001E-003    2.179856656488422E-006
  7.900000000000001E-003    2.334950781123567E-006
  8.000000000000002E-003    2.499423671857405E-006
  8.100000000000001E-003    2.673706875758405E-006
  8.200000000000001E-003    2.858243953978515E-006
  8.300000000000002E-003    3.053493779126446E-006
  8.400000000000001E-003    3.259932154369148E-006
  8.500000000000002E-003    3.478055975290084E-006
  8.600000000000002E-003    3.708385586119197E-006
  8.700000000000001E-003    3.951471205256061E-006
  8.800000000000002E-003    4.207896477171898E-006
  8.900000000000002E-003    4.478284286240712E-006
  9.000000000000001E-003    4.763302194286754E-006
  9.100000000000002E-003    5.063668359489682E-006
  9.200000000000002E-003    5.380155734980680E-006
  9.300000000000001E-003    5.713596677930469E-006
  9.400000000000002E-003    6.064887381564634E-006
  9.500000000000001E-003    6.434990292514417E-006
  9.600000000000001E-003    6.824936576804110E-006
  9.700000000000002E-003    7.235826922892526E-006
  9.800000000000001E-003    7.668833799264060E-006
  9.900000000000001E-003    8.125200636680566E-006
  1.000000000000000E-002    8.606241720865385E-006
  1.010000000000000E-002    9.113343019864116E-006
  1.020000000000000E-002    9.647961364452988E-006
  1.030000000000000E-002    1.021162455806278E-005
  1.040000000000000E-002    1.080592988905509E-005
  1.050000000000000E-002    1.143254540004272E-005
  1.060000000000000E-002    1.209320985699947E-005
  1.070000000000000E-002    1.278973135478104E-005
  1.080000000000000E-002    1.352398704106952E-005
  1.090000000000000E-002    1.429792129547072E-005
  1.100000000000000E-002    1.511354694389629E-005
  1.110000000000000E-002    1.597294391581574E-005
  1.120000000000000E-002    1.687826045305271E-005
  1.130000000000000E-002    1.783171112775306E-005
  1.140000000000000E-002    1.883558177672685E-005
  1.150000000000000E-002    1.989223389082763E-005
  1.160000000000000E-002    2.100410353603259E-005
  1.170000000000000E-002    2.217371887085927E-005
  1.180000000000000E-002    2.340370075253008E-005
  1.190000000000000E-002    2.469677987409422E-005
  1.200000000000000E-002    2.605580300706424E-005
  1.210000000000000E-002    2.748375278511974E-005
  1.220000000000000E-002    2.898375348079960E-005
  1.230000000000000E-002    3.055908512897606E-005
  1.240000000000000E-002    3.221319110609190E-005
  1.250000000000000E-002    3.394969061302462E-005
  1.260000000000000E-002    3.577238170949245E-005
  1.270000000000000E-002    3.768523625416430E-005
  1.280000000000000E-002    3.969241478029111E-005
  1.290000000000000E-002    4.179825464958321E-005
  1.300000000000000E-002    4.400726465686310E-005
  1.310000000000000E-002    4.632412866370920E-005
  1.320000000000000E-002    4.875369835226053E-005
  1.330000000000000E-002    5.130099161462694E-005
  1.340000000000000E-002    5.397120192448759E-005
  1.350000000000000E-002    5.676968649830877E-005
  1.360000000000000E-002    5.970198066293256E-005
  1.370000000000000E-002    6.277381247645924E-005
  1.380000000000000E-002    6.599110388594574E-005
  1.390000000000000E-002    6.935998994907466E-005
  1.400000000000000E-002    7.288682483227343E-005
  1.410000000000000E-002    7.657821348561322E-005
  1.420000000000000E-002    8.044100654056087E-005
  1.430000000000000E-002    8.448231718102489E-005
  1.440000000000000E-002    8.870953622458726E-005
  1.450000000000000E-002    9.313032115972487E-005
  1.460000000000000E-002    9.775263194433347E-005
  1.470000000000000E-002    1.025847138417620E-004
  1.480000000000000E-002    1.076350938651090E-004
  1.490000000000000E-002    1.129126005997071E-004
  1.500000000000000E-002    1.184263566972355E-004
  1.510000000000000E-002    1.241857731154550E-004
  1.520000000000000E-002    1.302005592072171E-004
  1.530000000000000E-002    1.364807292757732E-004
  1.540000000000000E-002    1.430365885299072E-004
  1.550000000000000E-002    1.498787795277049E-004
  1.560000000000000E-002    1.570182338112881E-004
  1.570000000000000E-002    1.644662234857245E-004
  1.580000000000000E-002    1.722343515356304E-004
  1.590000000000000E-002    1.803345781466369E-004
  1.600000000000000E-002    1.887791962607000E-004
  1.610000000000000E-002    1.975808699602526E-004
  1.620000000000000E-002    2.067526544142040E-004
  1.630000000000000E-002    2.163079304017579E-004
  1.640000000000000E-002    2.262605344269064E-004
  1.650000000000000E-002    2.366246565176613E-004
  1.660000000000000E-002    2.474148947128090E-004
  1.670000000000000E-002    2.586462829811674E-004
  1.680000000000000E-002    2.703342940714969E-004
  1.690000000000000E-002    2.824948207439121E-004
  1.700000000000000E-002    2.951442314123268E-004
  1.710000000000000E-002    3.082993655693086E-004
  1.720000000000000E-002    3.219775525623085E-004
  1.730000000000000E-002    3.361966058873946E-004
  1.740000000000000E-002    3.509748541190973E-004
  1.750000000000000E-002    3.663311448536952E-004
  1.760000000000000E-002    3.822848133664532E-004
  1.770000000000000E-002    3.988557415715305E-004
  1.780000000000000E-002    4.160643044375363E-004
  1.790000000000000E-002    4.339314072855811E-004
  1.800000000000000E-002    4.524784196195904E-004
  1.810000000000000E-002    4.717272462180119E-004
  1.820000000000000E-002    4.917002147630184E-004
  1.830000000000000E-002    5.124201760534349E-004
  1.840000000000000E-002    5.339103849645638E-004
  1.850000000000000E-002    5.561945825428333E-004
  1.860000000000000E-002    5.792968690255336E-004
  1.870000000000000E-002    6.032419084265040E-004