 -4.000000000000000E-002    0.000000000000000E+000
 -3.990000000000000E-002    0.000000000000000E+000
 -3.980000000000000E-002    7.383476116878843E-013
 -3.970000000000000E-002    4.108340253099003E-012
 -3.960000000000000E-002    1.377280426628784E-011
 -3.950000000000000E-002    3.573045466097846E-011
 -3.940000000000000E-002    7.860730958430357E-011
 -3.930000000000000E-002    1.534818767223483E-010
 -3.920000000000000E-002    2.731106729391196E-010
 -3.910000000000000E-002    4.505041889227241E-010
 -3.900000000000000E-002    6.969079975343223E-010
 -3.890000000000000E-002    1.019359013346287E-009
 -3.880000000000000E-002    1.418094779916115E-009
 -3.870000000000000E-002    1.884176408488400E-009
 -3.860000000000000E-002    2.397722006051133E-009
 -3.850000000000000E-002    2.927130507185313E-009
 -3.840000000000000E-002    3.429596193899654E-009
 -3.830000000000000E-002    3.853081487205642E-009
 -3.820000000000000E-002    4.139741475207450E-009
 -3.810000000000000E-002    4.230608425215043E-009
 -3.800000000000000E-002    4.071158952348912E-009
 -3.790000000000000E-002    3.617243597326029E-009
 -3.780000000000000E-002    2.840774332042786E-009
 -3.770000000000000E-002    1.734538637442067E-009
 -3.760000000000000E-002    3.155765599441892E-010
 -3.750000000000000E-002   -1.373322165939990E-009
 -3.740000000000000E-002   -3.264261584941055E-009
 -3.730000000000000E-002   -5.267069209883911E-009
 -3.720000000000000E-002   -7.274144567047671E-009
 -3.710000000000000E-002   -9.166953671002271E-009
 -3.700000000000000E-002   -1.082364358677419E-008
 -3.690000000000000E-002   -1.212713618843953E-008
 -3.680000000000000E-002   -1.297302615337820E-008
 -3.670000000000000E-002   -1.327662823106265E-008
 -3.660000000000000E-002   -1.297859367463102E-008
 -3.650000000000000E-002   -1.204865106426508E-008
 -3.640000000000000E-002   -1.048718483303968E-008
 -3.630000000000000E-002   -8.324566847700274E-009
 -3.620000000000000E-002   -5.618343956726226E-009
 -3.610000000000000E-002   -2.448598176085239E-009
 -3.600000000000000E-002    1.088037816197600E-009
 -3.590000000000000E-002    4.885074497429093E-009
 -3.580000000000000E-002    8.832845049846442E-009
 -3.570000000000000E-002    1.282442722228964E-008
 -3.560000000000000E-002    1.676011875367112E-008
 -3.550000000000000E-002    2.054994357982816E-008
 -3.540000000000000E-002    2.411389058637750E-008
 -3.530000000000000E-002    2.737989522291475E-008
 -3.520000000000000E-002    3.027993454574016E-008
 -3.510000000000000E-002    3.274492531687489E-008
 -3.500000000000000E-002    3.469940187891637E-008
 -3.490000000000000E-002    3.605712698325335E-008
 -3.480000000000000E-002    3.671880132036223E-008
 -3.470000000000000E-002    3.657286754705664E-008
 -3.460000000000000E-002    3.550007420289484E-008
 -3.450000000000000E-002    3.338197375195273E-008
 -3.440000000000000E-002    3.011293807458392E-008
 -3.430000000000000E-002    2.561468709143467E-008
 -3.420000000000000E-002    1.985179874815557E-008
 -3.410000000000000E-002    1.284637143506083E-008
 -3.400000000000000E-002    4.689839043687844E-009
 -3.390000000000000E-002   -4.449841784316871E-009
 -3.380000000000000E-002   -1.432699626777131E-008
 -3.370000000000000E-002   -2.462368646181928E-008
 -3.360000000000000E-002   -3.496176759803751E-008
 -3.350000000000000E-002   -4.492055050908949E-008
 -3.340000000000000E-002   -5.405844509480178E-008
 -3.330000000000000E-002   -6.193642383785698E-008
 -3.320000000000000E-002   -6.814092588990109E-008
 -3.310000000000000E-002   -7.230389796564480E-008
 -3.300000000000000E-002   -7.411815767582966E-008
 -3.290000000000000E-002   -7.334681198497714E-008
 -3.280000000000000E-002   -6.982636827266450E-008
 -3.270000000000000E-002   -6.346387850422497E-008
 -3.260000000000000E-002   -5.422924168329914E-008
 -3.250000000000000E-002   -4.214418155516250E-008
 -3.240000000000000E-002   -2.726965974260186E-008
 -3.230000000000000E-002   -9.693388117855804E-009
 -3.220000000000000E-002    1.048123556768378E-008
 -3.210000000000000E-002    3.314396381933479E-008
 -3.200000000000000E-002    5.818405608904691E-008
 -3.190000000000000E-002    8.549450138206958E-008
 -3.180000000000000E-002    1.149748225956327E-007
 -3.170000000000000E-002    1.465333600667054E-007
 -3.160000000000000E-002    1.800899457257913E-007
 -3.150000000000000E-002    2.155798134784400E-007
 -3.140000000000000E-002    2.529590076492444E-007
 -3.130000000000000E-002    2.922114095616077E-007
 -3.120000000000000E-002    3.333570407497154E-007
 -3.110000000000000E-002    3.764608290462230E-007
 -3.100000000000000E-002    4.216413143358995E-007
 -3.090000000000000E-002    4.690781512175154E-007
 -3.080000000000000E-002    5.190179494604881E-007
 -3.070000000000000E-002    5.717775212829761E-007
 -3.060000000000000E-002    6.277444303324257E-007
 -3.050000000000000E-002    6.873741732835912E-007
 -3.040000000000000E-002    7.511843964530154E-007
 -3.030000000000000E-002    8.197452638387044E-007
 -3.020000000000000E-002    8.936672831819491E-007
 -3.010000000000000E-002    9.735857376000764E-007
 -3.000000000000000E-002    1.060142526438292E-006
 -2.990000000000000E-002    1.153966618196697E-006
 -2.980000000000000E-002    1.255654173360483E-006
 -2.970000000000000E-002    1.365749445014110E-006
 -2.960000000000000E-002    1.484729292358373E-006
 -2.950000000000000E-002    1.612993478067469E-006
 -2.940000000000000E-002    1.750862172362708E-006
 -2.930000000000000E-002    1.898583353771468E-006
 -2.920000000000000E-002    2.056350718721764E-006
 -2.910000000000000E-002    2.224332619123127E-006
 -2.900000000000000E-002    2.402709082886707E-006
 -2.890000000000000E-002    2.591716466484106E-006
 -2.880000000000000E-002    2.791694298370569E-006
 -2.870000000000000E-002    3.003130679278413E-006
 -2.860000000000000E-002    3.226699913442647E-006
 -2.850000000000000E-002    3.463290141849837E-006
 -2.840000000000000E-002    3.714016738355509E-006
 -2.830000000000000E-002    3.980217560658153E-006
 -2.820000000000000E-002    4.263435353865306E-006
 -2.810000000000000E-002    4.565382930391638E-006
 -2.800000000000000E-002    4.887901036277928E-006
 -2.790000000000000E-002    5.232908557236814E-006
 -2.780000000000000E-002    5.602355942294965E-006
 -2.770000000000000E-002    5.998180422311366E-006
 -2.760000000000000E-002    6.422272138643525E-006
 -2.750000000000000E-002    6.876454539952742E-006
 -2.740000000000000E-002    7.362472048962802E-006
 -2.730000000000000E-002    7.881995265312603E-006
 -2.720000000000000E-002    8.436631946239829E-006
 -2.710000000000000E-002    9.027944822270921E-006
 -2.700000000000000E-002    9.657473582629539E-006
 -2.690000000000000E-002    1.032675624813181E-005
 -2.680000000000000E-002    1.103735107872882E-005
 -2.670000000000000E-002    1.179085389841564E-005
 -2.660000000000000E-002    1.258891501150947E-005
 -2.650000000000000E-002    1.343325956242465E-005
 -2.640000000000000E-002    1.432570324881174E-005
 -2.630000000000000E-002    1.526817632236183E-005
 -2.620000000000000E-002    1.626274942453069E-005
 -2.610000000000000E-002    1.731166169517466E-005
 -2.600000000000000E-002    1.841734951307914E-005
 -2.590000000000000E-002    1.958247497137701E-005
 -2.580000000000000E-002    2.080994776567411E-005
 -2.570000000000000E-002    2.210293686493223E-005
 -2.560000000000000E-002    2.346487646758120E-005
 -2.550000000000000E-002    2.489945504496096E-005
 -2.540000000000000E-002    2.641060117685938E-005
 -2.530000000000000E-002    2.800245775792010E-005
 -2.520000000000000E-002    2.967935374920227E-005
 -2.510000000000000E-002    3.144578680327009E-005
 -2.500000000000000E-002    3.330640108618032E-005
 -2.490000000000000E-002    3.526598957183940E-005
 -2.480000000000000E-002    3.732949882870967E-005
 -2.470000000000000E-002    3.950206112433498E-005
 -2.460000000000000E-002    4.178901027386907E-005
 -2.450000000000000E-002    4.419593745818772E-005
 -2.440000000000000E-002    4.672870475769662E-005
 -2.430000000000000E-002    4.939349478067058E-005
 -2.420000000000000E-002    5.219681280383565E-005
 -2.410000000000000E-002    5.514549898452117E-005
 -2.400000000000000E-002    5.824670376874736E-005
 -2.390000000000000E-002    6.150787725266806E-005
 -2.380000000000000E-002    6.493673955887753E-005
 -2.370000000000000E-002    6.854125010260607E-005
 -2.360000000000000E-002    7.232960202811027E-005
 -2.350000000000000E-002    7.631020708928728E-005
 -2.340000000000000E-002    8.049172057010770E-005
 -2.330000000000000E-002    8.488308079220465E-005
 -2.320000000000000E-002    8.949353974398893E-005
 -2.310000000000000E-002    9.433276720948919E-005
 -2.300000000000000E-002    9.941088468044911E-005
 -2.290000000000000E-002    1.047385371449710E-004
 -2.280000000000000E-002    1.103269628635612E-004
 -2.270000000000000E-002    1.161880225874775E-004
 -2.260000000000000E-002    1.223342108504995E-004
 -2.250000000000000E-002    1.287786806342274E-004
 -2.240000000000000E-002    1.355352042425275E-004
 -2.230000000000000E-002    1.426181579922913E-004
 -2.220000000000000E-002    1.500425168466427E-004
 -2.210000000000000E-002    1.578237990635952E-004
 -2.200000000000000E-002    1.659780611385542E-004
 -2.190000000000000E-002    1.745219279123365E-004
 -2.180000000000000E-002    1.834725411410483E-004
 -2.170000000000000E-002    1.928476261160932E-004
 -2.160000000000000E-002    2.026654882453931E-004
 -2.150000000000000E-002    2.129450658397648E-004
 -2.140000000000000E-002    2.237059115115886E-004
 -2.130000000000000E-002    2.349682708847016E-004
 -2.120000000000000E-002    2.467530058169405E-004
 -2.110000000000000E-002    2.590817140375829E-004
 -2.100000000000000E-002    2.719766664441054E-004
 -2.090000000000000E-002    2.854608542536716E-004
 -2.080000000000000E-002    2.995579941403073E-004
 -2.070000000000000E-002    3.142925951573176E-004
 -2.060000000000000E-002    3.296899876936528E-004
 -2.050000000000000E-002    3.457764236160105E-004
 -2.040000000000000E-002    3.625791238955007E-004
 -2.030000000000000E-002    3.801263380614437E-004
 -2.020000000000000E-002    3.984474094185187E-004
 -2.010000000000000E-002    4.175728271145485E-004
 -2.000000000000000E-002    4.375342055507539E-004
 -1.990000000000000E-002    4.583643451617503E-004
 -1.980000000000000E-002    4.800971511241257E-004
 -1.970000000000000E-002    5.027675793526846E-004
 -1.960000000000000E-002    5.264115993254749E-004
 -1.950000000000000E-002    5.510661244674667E-004
 -1.940000000000000E-002    5.767690106211141E-004
 -1.930000000000000E-002    6.035589604625937E-004
 -1.920000000000000E-002    6.314755411432409E-004
 -1.910000000000000E-002    6.605592535275029E-004
 -1.900000000000000E-002    6.908515839984498E-004
 -1.890000000000000E-002    7.223950081424193E-004
 -1.880000000000000E-002    7.552331530718405E-004
 -1.870000000000000E-002    7.894108292878549E-004
 -1.860000000000000E-002    8.249741584543590E-004
 -1.850000000000000E-002    8.619705788286546E-004
 -1.840000000000000E-002    9.004487994744637E-004
 -1.830000000000000E-002    9.404590302182189E-004
 -1.820000000000000E-002    9.820527380455730E-004
 -1.810000000000000E-002    1.025282808417621E-003
 -1.800000000000000E-002    1.070203476111234E-003
 -1.790000000000000E-002    1.116870224332672E-003
 -1.780000000000000E-002    1.165340015432228E-003
 -1.770000000000000E-002    1.215671030587634E-003
 -1.760000000000000E-002    1.267922830841193E-003
 -1.750000000000000E-002    1.322156252359338E-003
 -1.740000000000000E-002    1.378433729208005E-003
 -1.730000000000000E-002    1.436819083186943E-003
 -1.720000000000000E-002    1.497377365953819E-003
 -1.710000000000000E-002    1.560175400131358E-003
 -1.700000000000000E-002    1.625281188461212E-003
 -1.690000000000000E-002    1.692764202158992E-003
 -1.680000000000000E-002    1.762695100858242E-003
 -1.670000000000000E-002    1.835145995548181E-003
 -1.660000000000000E-002    1.910190070437913E-003
 -1.650000000000000E-002    1.987901611625174E-003
 -1.640000000000000E-002    2.068356076262058E-003
 -1.630000000000000E-002    2.151630114243971E-003
 -1.620000000000000E-002    2.237801518185144E-003
 -1.610000000000000E-002    2.326949048758714E-003
 -1.600000000000000E-002    2.419152818674770E-003
 -1.590000000000000E-002    2.514493978752161E-003
 -1.580000000000000E-002    2.613054607618776E-003
 -1.570000000000000E-002    2.714918212761193E-003
 -1.560000000000000E-002    2.820169224769713E-003
 -1.550000000000000E-002    2.928892918494046E-003
 -1.540000000000000E-002    3.041175832041115E-003
 -1.530000000000000E-002    3.157104973078547E-003
 -1.520000000000000E-002    3.276768311001389E-003
 -1.510000000000000E-002    3.400254646263918E-003
 -1.500000000000000E-002    3.527653095751642E-003
 -1.490000000000000E-002    3.659053615016983E-003
 -1.480000000000000E-002    3.794546819946181E-003
 -1.470000000000000E-002    3.934223708565091E-003
 -1.460000000000000E-002    4.078175637971345E-003
 -1.450000000000000E-002    4.226494782474918E-003
 -1.440000000000000E-002    4.379273009027401E-003
 -1.430000000000000E-002    4.536603048617882E-003
 -1.420000000000000E-002    4.698577360508346E-003
 -1.410000000000000E-002    4.865288356751670E-003
 -1.400000000000000E-002    5.036828248794980E-003
 -1.390000000000000E-002    5.213289095081499E-003
 -1.380000000000000E-002    5.394761774274729E-003
 -1.370000000000000E-002    5.581337466994919E-003
 -1.360000000000000E-002    5.773105705071580E-003
 -1.350000000000000E-002    5.970155308327235E-003
 -1.340000000000000E-002    6.172573388713557E-003
 -1.330000000000000E-002    6.380446616416575E-003
 -1.320000000000000E-002    6.593859643468656E-003
 -1.310000000000000E-002    6.812895685252361E-003
 -1.300000000000000E-002    7.037636738255099E-003
 -1.290000000000000E-002    7.268163168492545E-003
 -1.280000000000000E-002    7.504552258913989E-003
 -1.270000000000000E-002    7.746880423403118E-003
 -1.260000000000000E-002    7.995221042996253E-003
 -1.250000000000000E-002    8.249645213424620E-003
 -1.240000000000000E-002    8.510221450693273E-003
 -1.230000000000000E-002    8.777014943612299E-003
 -1.220000000000000E-002    9.050087883989599E-003
 -1.210000000000000E-002    9.329498329813335E-003
 -1.200000000000000E-002    9.615301715929041E-003
 -1.190000000000000E-002    9.907549340699351E-003
 -1.180000000000000E-002    1.020628853039641E-002
 -1.170000000000000E-002    1.051156223735166E-002
 -1.160000000000000E-002    1.082340816834550E-002
 -1.150000000000000E-002    1.114186004016967E-002
 -1.140000000000000E-002    1.146694695754547E-002
 -1.130000000000000E-002    1.179869146825729E-002
 -1.120000000000000E-002    1.213711115471944E-002
 -1.110000000000000E-002    1.248221697354388E-002
 -1.100000000000000E-002    1.283401505983494E-002
 -1.090000000000000E-002    1.319250282210498E-002
 -1.080000000000000E-002    1.355767235919034E-002
 -1.070000000000000E-002    1.392950796712770E-002
 -1.060000000000000E-002    1.430798586676195E-002
 -1.050000000000000E-002    1.469307443649886E-002
 -1.040000000000000E-002    1.508473639667836E-002
 -1.030000000000000E-002    1.548292181069997E-002
 -1.020000000000000E-002    1.588757564233495E-002
 -1.010000000000000E-002    1.629863189119245E-002
 -1.000000000000000E-002    1.671601590209009E-002
 -9.899999999999999E-003    1.713964371118957E-002
 -9.800000000000000E-003    1.756942085534642E-002
 -9.699999999999999E-003    1.800524388248393E-002
 -9.599999999999999E-003    1.844699643687740E-002
 -9.500000000000000E-003    1.889455267766740E-002
 -9.399999999999999E-003    1.934777481301959E-002
 -9.299999999999999E-003    1.980651233665358E-002
 -9.200000000000000E-003    2.027060557949872E-002
 -9.099999999999999E-003    2.073988144427702E-002
 -8.999999999999999E-003    2.121415304209872E-002
 -8.900000000000000E-003    2.169322120256029E-002
 -8.799999999999999E-003    2.217687423544106E-002
 -8.699999999999999E-003    2.266488369713012E-002
 -8.600000000000000E-003    2.315701201147621E-002
 -8.499999999999999E-003    2.365300195342841E-002
 -8.399999999999999E-003    2.415258657919642E-002
 -8.300000000000000E-003    2.465548058263213E-002
 -8.199999999999999E-003    2.516138483024057E-002
 -8.100000000000000E-003    2.566998535153437E-002
 -8.000000000000000E-003    2.618095067640121E-002
 -7.899999999999999E-003    2.669393636989246E-002
 -7.800000000000000E-003    2.720857556161493E-002
 -7.699999999999999E-003    2.772449308923824E-002
 -7.599999999999999E-003    2.824128925204234E-002
 -7.499999999999999E-003    2.875855086854465E-002
 -7.399999999999999E-003    2.927584774593267E-002
 -7.299999999999999E-003    2.979273108254870E-002
 -7.199999999999999E-003    3.030873428755933E-002
 -7.100000000000000E-003    3.082337133098961E-002
 -6.999999999999999E-003    3.133614175033468E-002
 -6.899999999999999E-003    3.184652291401814E-002
 -6.800000000000000E-003    3.235397515815294E-002
 -6.699999999999999E-003    3.285794079285537E-002
 -6.599999999999999E-003    3.335784353796639E-002
 -6.499999999999999E-003    3.385308537837482E-002
 -6.399999999999999E-003    3.434305643876549E-002
 -6.299999999999999E-003    3.482711956853113E-002
 -6.199999999999999E-003    3.530462179965731E-002
 -6.100000000000000E-003    3.577489497004954E-002
 -5.999999999999999E-003    3.623724690391941E-002
 -5.899999999999999E-003    3.669096473762010E-002
 -5.800000000000000E-003    3.713532182521853E-002
 -5.699999999999999E-003    3.756957234313853E-002
 -5.599999999999999E-003    3.799294689244423E-002
 -5.499999999999999E-003    3.840466145462960E-002
 -5.399999999999999E-003    3.880391239328235E-002
 -5.299999999999999E-003    3.918987662343208E-002
 -5.199999999999999E-003    3.956171124449788E-002
 -5.099999999999999E-003    3.991856127317815E-002
 -4.999999999999999E-003    4.025954980323212E-002
 -4.899999999999999E-003    4.058378279027221E-002
 -4.799999999999999E-003    4.089035021073256E-002
 -4.699999999999999E-003    4.117832311499855E-002
 -4.599999999999999E-003    4.144675588832315E-002
 -4.499999999999999E-003    4.169468911448584E-002
 -4.399999999999999E-003    4.192114715155866E-002
 -4.299999999999999E-003    4.212513712589291E-002
 -4.199999999999999E-003    4.230565553862907E-002
 -4.099999999999999E-003    4.246168119815961E-002
 -3.999999999999999E-003    4.259217970792337E-002
 -3.899999999999999E-003    4.269610705089363E-002
 -3.799999999999999E-003    4.277240141027715E-002
 -3.699999999999999E-003    4.281999166168573E-002
 -3.599999999999999E-003    4.283779895793827E-002
 -3.499999999999999E-003    4.282472941967454E-002
 -3.399999999999999E-003    4.277968104502496E-002
 -3.299999999999999E-003    4.270154692546535E-002
 -3.199999999999999E-003    4.258920689095178E-002
 -3.099999999999999E-003    4.244153828119013E-002
 -2.999999999999999E-003    4.225741116503764E-002
 -2.899999999999999E-003    4.203568701754827E-002
 -2.799999999999999E-003    4.177522764623119E-002
 -2.699999999999999E-003    4.147488683647110E-002
 -2.599999999999999E-003    4.113351853273670E-002
 -2.499999999999999E-003    4.074997904253217E-002
 -2.399999999999999E-003    4.032312107473986E-002
 -2.299999999999999E-003    3.985179712268146E-002
 -2.199999999999999E-003    3.933486655929060E-002
 -2.099999999999999E-003    3.877119096018082E-002
 -1.999999999999999E-003    3.815963254112562E-002
 -1.899999999999999E-003    3.749906503651591E-002
 -1.799999999999999E-003    3.678836925538059E-002
 -1.699999999999999E-003    3.602643200322353E-002
 -1.599999999999999E-003    3.521215094454212E-002
 -1.499999999999999E-003    3.434443481402983E-002
 -1.399999999999999E-003    3.342220856805350E-002
 -1.299999999999999E-003    3.244440528266383E-002
 -1.199999999999999E-003    3.140998121399140E-002
 -1.099999999999999E-003    3.031790292209397E-002
 -9.999999999999989E-004    2.916715811258395E-002
 -8.999999999999990E-004    2.795675852158047E-002
 -7.999999999999990E-004    2.668573083114880E-002
 -6.999999999999989E-004    2.535313155489087E-002
 -5.999999999999990E-004    2.395803439984078E-002
 -4.999999999999989E-004    2.249954661081874E-002
 -3.999999999999989E-004    2.097679760653854E-002
 -2.999999999999989E-004    1.938895017082109E-002
 -1.999999999999989E-004    1.773519628610055E-002
 -9.999999999999892E-005    1.601476015442040E-002
  1.084202172485504E-018    1.422690117275958E-002
  1.000000000000011E-004    1.237091615842737E-002
  2.000000000000011E-004    1.044613370011840E-002
  3.000000000000011E-004    8.451926517701935E-003
  4.000000000000011E-004    6.387706672246302E-003
  5.000000000000011E-004    4.252924109548280E-003
  6.000000000000011E-004    2.047080698518730E-003
  7.000000000000011E-004   -2.302781548475397E-004
  8.000000000000011E-004   -2.579566679015671E-003
  9.000000000000012E-004   -5.001144571080285E-003
  1.000000000000001E-003   -7.495322282153561E-003
  1.100000000000001E-003   -1.006236000304192E-002
  1.200000000000001E-003   -1.270246495904052E-002
  1.300000000000001E-003   -1.541578879217203E-002
  1.400000000000001E-003   -1.820242915004330E-002
  1.500000000000001E-003   -2.106242419879789E-002
  1.600000000000001E-003   -2.399575950780727E-002
  1.700000000000001E-003   -2.700235505690082E-002
  1.800000000000001E-003   -3.008207142296210E-002
  1.900000000000001E-003   -3.323470915526972E-002
  2.000000000000001E-003   -3.646000647900767E-002
  2.100000000000001E-003   -3.975762848067330E-002
  2.200000000000001E-003   -4.312717763989550E-002
  2.300000000000001E-003   -4.656819341858093E-002
  2.400000000000001E-003   -5.008014800695867E-002
  2.500000000000001E-003   -5.366243945654840E-002
  2.600000000000001E-003   -5.731440120789765E-002
  2.700000000000001E-003   -6.103529155494179E-002
  2.800000000000001E-003   -6.482430679105530E-002
  2.900000000000001E-003   -6.868055775605773E-002
  3.000000000000001E-003   -7.260308886861905E-002
  3.100000000000001E-003   -7.659087763149780E-002
  3.200000000000001E-003   -8.064281798932846E-002
  3.300000000000001E-003   -8.475773479060593E-002
  3.400000000000001E-003   -8.893437377913900E-002
  3.500000000000001E-003   -9.317141681961399E-002
  3.600000000000001E-003   -9.746745524367373E-002
  3.700000000000001E-003   -0.101821020060561     
  3.800000000000001E-003   -0.106230561774686     
  3.900000000000001E-003   -0.110694445750593     
  4.000000000000001E-003   -0.115210976552791     
  4.100000000000001E-003   -0.119778381348767     
  4.200000000000001E-003   -0.124394804582356     
  4.300000000000001E-003   -0.129058319595605     
  4.400000000000001E-003   -0.133766940974445     
  4.500000000000001E-003   -0.138518587146627     
  4.600000000000002E-003   -0.143311117045743     
  4.700000000000001E-003   -0.148142304078936     
  4.800000000000001E-003   -0.153009863032757     
  4.900000000000002E-003   -0.157911454711439     
  5.000000000000001E-003   -0.162844637372311     
  5.100000000000001E-003   -0.167806913772911     
  5.200000000000001E-003   -0.172795735852987     
  5.300000000000002E-003   -0.177808462595418     
  5.400000000000001E-003   -0.182842415255320     
  5.500000000000001E-003   -0.187894842576190     
  5.600000000000002E-003   -0.192962925406670     
  5.700000000000001E-003   -0.198043796601816     
  5.800000000000001E-003   -0.203134525686773     
  5.900000000000002E-003   -0.208232116306779     
  6.000000000000001E-003   -0.213333527014950     
  6.100000000000001E-003   -0.218435676389637     
  6.200000000000002E-003   -0.223535418448631     
  6.300000000000002E-003   -0.228629566150002     
  6.400000000000001E-003   -0.233714876300956     
  6.500000000000001E-003   -0.238788096415677     
  6.600000000000002E-003   -0.243845879814146     
  6.700000000000001E-003   -0.248884901090358     
  6.800000000000001E-003   -0.253901748566172     
  6.900000000000002E-003   -0.258892995496522     
  7.000000000000001E-003   -0.263855206101664     
  7.100000000000001E-003   -0.268784893415414     
  7.200000000000002E-003   -0.273678539917161     
  7.300000000000002E-003   -0.278532634234601     
  7.400000000000001E-003   -0.283343634630773     
  7.500000000000001E-003   -0.288107975528306     
  7.600000000000002E-003   -0.292822085984117     
  7.700000000000001E-003   -0.297482373601324     
  7.800000000000001E-003   -0.302085270094296     
  7.900000000000001E-003   -0.306627168068852     
  8.000000000000002E-003   -0.311104480286945     
  8.100000000000001E-003   -0.315513647985584     
  8.200000000000001E-003   -0.319851080771751     
  8.300000000000002E-003   -0.324113196659962     
  8.400000000000001E-003   -0.328296462548469     
  8.500000000000002E-003   -0.332397337229961     
  8.600000000000002E-003   -0.336412316014027     
  8.700000000000001E-003   -0.340337889995808     
  8.800000000000002E-003   -0.344170625527479     
  8.900000000000002E-003   -0.347907085533931     
  9.000000000000001E-003   -0.351543876532043     
  9.100000000000002E-003   -0.355077640220390     
  9.200000000000002E-003   -0.358505080624652     
  9.300000000000001E-003   -0.361822924432312     
  9.400000000000002E-003   -0.365027930111141     
  9.500000000000001E-003   -0.368116950581123     
  9.600000000000001E-003   -0.371086884727943     
  9.700000000000002E-003   -0.373934668522794     
  9.800000000000001E-003   -0.376657337789076     
  9.900000000000001E-003   -0.379251955266493     
  1.000000000000000E-002   -0.381715668080561     
  1.010000000000000E-002   -0.384045671847085     
  1.020000000000000E-002   -0.386239302853566     
  1.030000000000000E-002   -0.388293912551059     
  1.040000000000000E-002   -0.390206971372042     
  1.050000000000000E-002   -0.391976021085646     
  1.060000000000000E-002   -0.393598685721764     
  1.070000000000000E-002   -0.395072700853249     
  1.080000000000000E-002   -0.396395858985804     
  1.090000000000000E-002   -0.397566063109779     
  1.100000000000000E-002   -0.398581343574165     
  1.110000000000000E-002   -0.399439789318952     
  1.120000000000000E-002   -0.400139635984891     
  1.130000000000000E-002   -0.400679168904902     
  1.140000000000000E-002   -0.401056840002197     
  1.150000000000000E-002   -0.401271171540067     
  1.160000000000000E-002   -0.401320806869768     
  1.170000000000000E-002   -0.401204538239921     
  1.180000000000000E-002   -0.400921207602563     
  1.190000000000000E-002   -0.400469831495631     
  1.200000000000000E-002   -0.399849537170344     
  1.210000000000000E-002   -0.399059524233261     
  1.220000000000000E-002   -0.398099204485578     
  1.230000000000000E-002   -0.396968007548896     
  1.240000000000000E-002   -0.395665564024116     
  1.250000000000000E-002   -0.394191599153755     
  1.260000000000000E-002   -0.392545970172743     
  1.270000000000000E-002   -0.390728671033037     
  1.280000000000000E-002   -0.388739800852609     
  1.290000000000000E-002   -0.386579600275377     
  1.300000000000000E-002   -0.384248449428440     
  1.310000000000000E-002   -0.381746835055337     
  1.320000000000000E-002   -0.379075368875488     
  1.330000000000000E-002   -0.376234809382567     
  1.340000000000000E-002   -0.373226033778877     
  1.350000000000000E-002   -0.370050041639488     
  1.360000000000000E-002   -0.366707971833515     
  1.370000000000000E-002   -0.363201102788397     
  1.380000000000000E-002   -0.359530782096377     
  1.390000000000000E-002   -0.355698551641331     
  1.400000000000000E-002   -0.351706027160776     
  1.410000000000000E-002   -0.347554962736910     
  1.420000000000000E-002   -0.343247244330000     
  1.430000000000000E-002   -0.338784875460048     
  1.440000000000000E-002   -0.334169960071773     
  1.450000000000000E-002   -0.329404720557028     
  1.460000000000000E-002   -0.324491503594954     
  1.470000000000000E-002   -0.319432755437942     
  1.480000000000000E-002   -0.314231060663190     
  1.490000000000000E-002   -0.308889084477584     
  1.500000000000000E-002   -0.303409636425736     
  1.510000000000000E-002   -0.297795559917456     
  1.520000000000000E-002   -0.292049868777627     
  1.530000000000000E-002   -0.286175632546493     
  1.540000000000000E-002   -0.280176051849555     
  1.550000000000000E-002   -0.274054376637355     
  1.560000000000000E-002   -0.267813973300296     
  1.570000000000000E-002   -0.261458273866710     
  1.580000000000000E-002   -0.254990820197266     
  1.590000000000000E-002   -0.248415230077437     
  1.600000000000000E-002   -0.241735188565410     
  1.610000000000000E-002   -0.234954446531748     
  1.620000000000000E-002   -0.228076865542648     
  1.630000000000000E-002   -0.221106315841879     
  1.640000000000000E-002   -0.214046787393624     
  1.650000000000000E-002   -0.206902283119185     
  1.660000000000000E-002   -0.199676891748898     
  1.670000000000000E-002   -0.192374734262898     
  1.680000000000000E-002   -0.184999992360734     
  1.690000000000000E-002   -0.177556893128209     
  1.700000000000000E-002   -0.170049696715237     
  1.710000000000000E-002   -0.162482706740249     
  1.720000000000000E-002   -0.154860248047535     
  1.730000000000000E-002   -0.147186696749506     
  1.740000000000000E-002   -0.139466435776757     
  1.750000000000000E-002   -0.131703873940993     
  1.760000000000000E-002   -0.123903433564418     
  1.770000000000000E-002   -0.116069562087984     
  1.780000000000000E-002   -0.108206706357244     
  1.790000000000000E-002   -0.100319319744566     
  1.800000000000000E-002   -9.241186240342297E-002
  1.810000000000000E-002   -8.448879399407250E-002
  1.820000000000000E-002   -7.655456094382523E-002
  1.830000000000000E-002   -6.861359957826763E-002
  1.840000000000000E-002   -6.067033285703637E-002
  1.850000000000000E-002   -5.272916722194064E-002
  1.860000000000000E-002   -4.479448719560784E-002
  1.870000000000000E-002   -3.687065771639246E-002