 -4.000000000000000E-002    0.000000000000000E+000
 -3.990000000000000E-002    0.000000000000000E+000
 -3.980000000000000E-002    0.000000000000000E+000
 -3.970000000000000E-002    0.000000000000000E+000
 -3.960000000000000E-002   -7.621349169086120E-018
 -3.950000000000000E-002   -6.504754225428765E-017
 -3.940000000000000E-002   -3.065504929728515E-016
 -3.930000000000000E-002   -1.052188534338242E-015
 -3.920000000000000E-002   -2.932319808331278E-015
 -3.910000000000000E-002   -7.022509529586309E-015
 -3.900000000000000E-002   -1.495170274399069E-014
 -3.890000000000000E-002   -2.893183467399634E-014
 -3.880000000000000E-002   -5.164867837410667E-014
 -3.870000000000000E-002   -8.595580151690505E-014
 -3.860000000000000E-002   -1.343291899507528E-013
 -3.850000000000000E-002   -1.980702874428027E-013
 -3.840000000000000E-002   -2.762887099878664E-013
 -3.830000000000000E-002   -3.647480170553826E-013
 -3.820000000000000E-002   -4.547117577985662E-013
 -3.810000000000000E-002   -5.319741793879051E-013
 -3.800000000000000E-002   -5.762904107907846E-013
 -3.790000000000000E-002   -5.614268049821957E-013
 -3.780000000000000E-002   -4.560259046929002E-013
 -3.770000000000000E-002   -2.254224791912901E-013
 -3.760000000000000E-002    1.655446472082700E-013
 -3.750000000000000E-002    7.487943526447742E-013
 -3.740000000000000E-002    1.548536560593880E-012
 -3.730000000000000E-002    2.576400924341342E-012
 -3.720000000000000E-002    3.826591272415059E-012
 -3.710000000000000E-002    5.271571641864592E-012
 -3.700000000000000E-002    6.858813211701346E-012
 -3.690000000000000E-002    8.509104214397151E-012
 -3.680000000000000E-002    1.011684026291630E-011
 -3.670000000000000E-002    1.155256858241619E-011
 -3.660000000000000E-002    1.266788706985663E-011
 -3.650000000000000E-002    1.330260333130176E-011
 -3.640000000000000E-002    1.329384160513803E-011
 -3.630000000000000E-002    1.248662172135740E-011
 -3.620000000000000E-002    1.074528212545433E-011
 -3.610000000000000E-002    7.965034216191248E-012
 -3.600000000000000E-002    4.082915765040817E-012
 -3.590000000000000E-002   -9.125629583711383E-013
 -3.580000000000000E-002   -6.973683266811691E-012
 -3.570000000000000E-002   -1.398816980873509E-011
 -3.560000000000000E-002   -2.177655398770424E-011
 -3.550000000000000E-002   -3.009242902444736E-011
 -3.540000000000000E-002   -3.862563274656906E-011
 -3.530000000000000E-002   -4.700829963413749E-011
 -3.520000000000000E-002   -5.482366529616573E-011
 -3.510000000000000E-002   -6.161747193022711E-011
 -3.500000000000000E-002   -6.691185731528043E-011
 -3.490000000000000E-002   -7.022154496953609E-011
 -3.480000000000000E-002   -7.107225075470610E-011
 -3.470000000000000E-002   -6.902111188303041E-011
 -3.460000000000000E-002   -6.367889074464251E-011
 -3.450000000000000E-002   -5.473358522999113E-011
 -3.440000000000000E-002   -4.197481860431817E-011
 -3.430000000000000E-002   -2.531821850860260E-011
 -3.420000000000000E-002   -4.828717742997233E-012
 -3.410000000000000E-002    1.925862422310341E-011
 -3.400000000000000E-002    4.652171220156450E-011
 -3.390000000000000E-002    7.634012472962530E-011
 -3.380000000000000E-002    1.078910633076272E-010
 -3.370000000000000E-002    1.401539836586776E-010
 -3.360000000000000E-002    1.719252014074269E-010
 -3.350000000000000E-002    2.018431971378862E-010
 -3.340000000000000E-002    2.284249442380368E-010
 -3.330000000000000E-002    2.501129266019947E-010
 -3.320000000000000E-002    2.653318798401469E-010
 -3.310000000000000E-002    2.725537334434711E-010
 -3.300000000000000E-002    2.703686951708195E-010
 -3.290000000000000E-002    2.575599302863896E-010
 -3.280000000000000E-002    2.331788938957785E-010
 -3.270000000000000E-002    1.966183394207181E-010
 -3.260000000000000E-002    1.476798079049758E-010
 -3.250000000000000E-002    8.663225247267154E-011
 -3.240000000000000E-002    1.425893986961234E-011
 -3.230000000000000E-002   -6.811059535614759E-011
 -3.220000000000000E-002   -1.585863134550525E-010
 -3.210000000000000E-002   -2.547235503159697E-010
 -3.200000000000000E-002   -3.535516322220037E-010
 -3.190000000000000E-002   -4.516267306764671E-010
 -3.180000000000000E-002   -5.451105273377067E-010
 -3.170000000000000E-002   -6.298750689971789E-010
 -3.160000000000000E-002   -7.016334445502373E-010
 -3.150000000000000E-002   -7.560945787359704E-010
 -3.140000000000000E-002   -7.891388110417894E-010
 -3.130000000000000E-002   -7.970096346700896E-010
 -3.120000000000000E-002   -7.765149432804307E-010
 -3.110000000000000E-002   -7.252292255337471E-010
 -3.100000000000000E-002   -6.416871815839576E-010
 -3.090000000000000E-002   -5.255577707064801E-010
 -3.080000000000000E-002   -3.777865350511519E-010
 -3.070000000000000E-002   -2.006957694854033E-010
 -3.060000000000000E-002    1.968975524544065E-012
 -3.050000000000000E-002    2.250541204872474E-010
 -3.040000000000000E-002    4.620816018341774E-010
 -3.030000000000000E-002    7.054029798596561E-010
 -3.020000000000000E-002    9.464231356462240E-010
 -3.010000000000000E-002    1.175888266397296E-009
 -3.000000000000000E-002    1.384227913287705E-009
 -2.990000000000000E-002    1.561938257743287E-009
 -2.980000000000000E-002    1.699989006734708E-009
 -2.970000000000000E-002    1.790235101406360E-009
 -2.960000000000000E-002    1.825812229495104E-009
 -2.950000000000000E-002    1.801496301092388E-009
 -2.940000000000000E-002    1.714006615625632E-009
 -2.930000000000000E-002    1.562236596972797E-009
 -2.920000000000000E-002    1.347398483972933E-009
 -2.910000000000000E-002    1.073072897559859E-009
 -2.900000000000000E-002    7.451598377980129E-010
 -2.890000000000000E-002    3.717306561182367E-010
 -2.880000000000000E-002   -3.721175835387734E-011
 -2.870000000000000E-002   -4.700547270136527E-010
 -2.860000000000000E-002   -9.139660930233886E-010
 -2.850000000000000E-002   -1.355334715091901E-009
 -2.840000000000000E-002   -1.780243866823096E-009
 -2.830000000000000E-002   -2.174956599718366E-009
 -2.820000000000000E-002   -2.526393954001453E-009
 -2.810000000000000E-002   -2.822588375332356E-009
 -2.800000000000000E-002   -3.053094076061271E-009
 -2.790000000000000E-002   -3.209341373645086E-009
 -2.780000000000000E-002   -3.284923468259030E-009
 -2.770000000000000E-002   -3.275806078521999E-009
 -2.760000000000000E-002   -3.180455547471985E-009
 -2.750000000000000E-002   -2.999881567962829E-009
 -2.740000000000000E-002   -2.737594234424666E-009
 -2.730000000000000E-002   -2.399477814937528E-009
 -2.720000000000000E-002   -1.993582924706495E-009
 -2.710000000000000E-002   -1.529844764573024E-009
 -2.700000000000000E-002   -1.019730286123166E-009
 -2.690000000000000E-002   -4.758244582965630E-010
 -2.680000000000000E-002    8.863642536911597E-011
 -2.670000000000000E-002    6.602754850274098E-010
 -2.660000000000000E-002    1.226114880654708E-009
 -2.650000000000000E-002    1.774131216971408E-009
 -2.640000000000000E-002    2.293807665286993E-009
 -2.630000000000000E-002    2.776661541547918E-009
 -2.620000000000000E-002    3.216720921007442E-009
 -2.610000000000000E-002    3.610921448019671E-009
 -2.600000000000000E-002    3.959390269157116E-009
 -2.590000000000000E-002    4.265584668173203E-009
 -2.580000000000000E-002    4.536249875072245E-009
 -2.570000000000000E-002    4.781165838154755E-009
 -2.560000000000000E-002    5.012659117776317E-009
 -2.550000000000000E-002    5.244863007504949E-009
 -2.540000000000000E-002    5.492726939953365E-009
 -2.530000000000000E-002    5.770790064888386E-009
 -2.520000000000000E-002    6.091753301887897E-009
 -2.510000000000000E-002    6.464909386530319E-009
 -2.500000000000000E-002    6.894509564056077E-009
 -2.490000000000000E-002    7.378167151470106E-009
 -2.480000000000000E-002    7.905411067255808E-009
 -2.470000000000000E-002    8.456525251524874E-009
 -2.460000000000000E-002    9.001795531108184E-009
 -2.450000000000000E-002    9.501298836258711E-009
 -2.440000000000000E-002    9.905340087808558E-009
 -2.430000000000000E-002    1.015562006934410E-008
 -2.420000000000000E-002    1.018718839244228E-008
 -2.410000000000000E-002    9.931184833436855E-009
 -2.400000000000000E-002    9.318323459766822E-009
 -2.390000000000000E-002    8.283021880971053E-009
 -2.380000000000000E-002    6.768033541740501E-009
 -2.370000000000000E-002    4.729390135494816E-009
 -2.360000000000000E-002    2.141431117735214E-009
 -2.350000000000000E-002   -9.983533918169125E-010
 -2.340000000000000E-002   -4.664893165039206E-009
 -2.330000000000000E-002   -8.801816531051336E-009
 -2.320000000000000E-002   -1.331861603814675E-008
 -2.310000000000000E-002   -1.808894306531396E-008
 -2.300000000000000E-002   -2.295011893562509E-008
 -2.290000000000000E-002   -2.770396169189234E-008
 -2.280000000000000E-002   -3.211886551162676E-008
 -2.270000000000000E-002   -3.593317909934983E-008
 -2.260000000000000E-002   -3.885958250147297E-008
 -2.250000000000000E-002   -4.059034712074704E-008
 -2.240000000000000E-002   -4.080324098489082E-008
 -2.230000000000000E-002   -3.916772640791272E-008
 -2.220000000000000E-002   -3.535122093890686E-008
 -2.210000000000000E-002   -2.902507991569284E-008
 -2.200000000000000E-002   -1.987006556376922E-008
 -2.190000000000000E-002   -7.581062170763252E-009
 -2.180000000000000E-002    8.129123057012764E-009
 -2.170000000000000E-002    2.752696325627033E-008
 -2.160000000000000E-002    5.085656212193904E-008
 -2.150000000000000E-002    7.833905496588253E-008
 -2.140000000000000E-002    1.101730563459802E-007
 -2.130000000000000E-002    1.465359538750167E-007
 -2.120000000000000E-002    1.875860807991805E-007
 -2.110000000000000E-002    2.334653986020436E-007
 -2.100000000000000E-002    2.843026852541680E-007
 -2.090000000000000E-002    3.402169639475096E-007
 -2.080000000000000E-002    4.013211549723339E-007
 -2.070000000000000E-002    4.677257135163023E-007
 -2.060000000000000E-002    5.395423817094809E-007
 -2.050000000000000E-002    6.168875642424455E-007
 -2.040000000000000E-002    6.998861037303706E-007
 -2.030000000000000E-002    7.886745191909648E-007
 -2.020000000000000E-002    8.834045806374347E-007
 -2.010000000000000E-002    9.842468970660713E-007
 -2.000000000000000E-002    1.091394349466535E-006
 -1.990000000000000E-002    1.205065739142301E-006
 -1.980000000000000E-002    1.325509752658993E-006
 -1.970000000000000E-002    1.453008746539853E-006
 -1.960000000000000E-002    1.587882553947835E-006
 -1.950000000000000E-002    1.730492345956362E-006
 -1.940000000000000E-002    1.881244019358710E-006
 -1.930000000000000E-002    2.040592109970899E-006
 -1.920000000000000E-002    2.209040958199287E-006
 -1.910000000000000E-002    2.387148107998594E-006
 -1.900000000000000E-002    2.575524664478544E-006
 -1.890000000000000E-002    2.774835193569585E-006
 -1.880000000000000E-002    2.985797439242634E-006
 -1.870000000000000E-002    3.209179471260847E-006
 -1.860000000000000E-002    3.445797534230395E-006
 -1.850000000000000E-002    3.696512179651351E-006
 -1.840000000000000E-002    3.962224118085468E-006
 -1.830000000000000E-002    4.243869942327708E-006
 -1.820000000000000E-002    4.542417428072780E-006
 -1.810000000000000E-002    4.858861914286604E-006
 -1.800000000000000E-002    5.194224579069891E-006
 -1.790000000000000E-002    5.549549775958903E-006
 -1.780000000000000E-002    5.925905122242362E-006
 -1.770000000000000E-002    6.324384513907939E-006
 -1.760000000000000E-002    6.746110531333826E-006
 -1.750000000000000E-002    7.192242230318769E-006
 -1.740000000000000E-002    7.663981136653541E-006
 -1.730000000000000E-002    8.162583304925509E-006
 -1.720000000000000E-002    8.689369513728131E-006
 -1.710000000000000E-002    9.245737180080734E-006
 -1.700000000000000E-002    9.833173079221957E-006
 -1.690000000000000E-002    1.045327056697051E-005
 -1.680000000000000E-002    1.110773756116160E-005
 -1.670000000000000E-002    1.179841166829476E-005
 -1.660000000000000E-002    1.252727096468000E-005
 -1.650000000000000E-002    1.329644272253290E-005
 -1.640000000000000E-002    1.410821231185136E-005
 -1.630000000000000E-002    1.496502547847984E-005
 -1.620000000000000E-002    1.586949452512337E-005
 -1.610000000000000E-002    1.682439823957815E-005
 -1.600000000000000E-002    1.783267882551917E-005
 -1.590000000000000E-002    1.889744086298062E-005
 -1.580000000000000E-002    2.002194621454902E-005
 -1.570000000000000E-002    2.120960739454518E-005
 -1.560000000000000E-002    2.246397869174397E-005
 -1.550000000000000E-002    2.378875045765505E-005
 -1.540000000000000E-002    2.518774106310535E-005
 -1.530000000000000E-002    2.666489208252035E-005
 -1.520000000000000E-002    2.822426543071539E-005
 -1.510000000000000E-002    2.987003478634756E-005
 -1.500000000000000E-002    3.160649070353719E-005
 -1.490000000000000E-002    3.343803911358868E-005
 -1.480000000000000E-002    3.536921252995052E-005
 -1.470000000000000E-002    3.740467274838925E-005
 -1.460000000000000E-002    3.954922891031743E-005
 -1.450000000000000E-002    4.180784758334187E-005
 -1.440000000000000E-002    4.418568019164446E-005
 -1.430000000000000E-002    4.668807945823177E-005
 -1.420000000000000E-002    4.932062102641985E-005
 -1.410000000000000E-002    5.208913883034699E-005
 -1.400000000000000E-002    5.499973270633402E-005
 -1.390000000000000E-002    5.805881301998921E-005
 -1.380000000000000E-002    6.127310351000689E-005
 -1.370000000000000E-002    6.464968325411461E-005
 -1.360000000000000E-002    6.819599749763612E-005
 -1.350000000000000E-002    7.191986597649773E-005
 -1.340000000000000E-002    7.582951811058977E-005
 -1.330000000000000E-002    7.993358752161043E-005
 -1.320000000000000E-002    8.424112372248891E-005
 -1.310000000000000E-002    8.876160827642592E-005
 -1.300000000000000E-002    9.350494519126532E-005
 -1.290000000000000E-002    9.848149273198956E-005
 -1.280000000000000E-002    1.037020459662211E-004
 -1.270000000000000E-002    1.091778451365440E-004
 -1.260000000000000E-002    1.149205761468874E-004
 -1.250000000000000E-002    1.209423888448411E-004
 -1.240000000000000E-002    1.272559033865720E-004
 -1.230000000000000E-002    1.338741992124413E-004
 -1.220000000000000E-002    1.408108331718379E-004
 -1.210000000000000E-002    1.480798436005696E-004
 -1.200000000000000E-002    1.556957779484326E-004
 -1.190000000000000E-002    1.636736585088146E-004
 -1.180000000000000E-002    1.720290371171679E-004
 -1.170000000000000E-002    1.807779432164648E-004
 -1.160000000000000E-002    1.899369310176134E-004
 -1.150000000000000E-002    1.995231050113970E-004
 -1.140000000000000E-002    2.095540895444768E-004
 -1.130000000000000E-002    2.200480694513563E-004
 -1.120000000000000E-002    2.310237732493961E-004
 -1.110000000000000E-002    2.425005535167882E-004
 -1.100000000000000E-002    2.544983536072569E-004
 -1.090000000000000E-002    2.670377660479201E-004
 -1.080000000000000E-002    2.801400411664955E-004
 -1.070000000000000E-002    2.938271653584144E-004
 -1.060000000000000E-002    3.081218587239630E-004
 -1.050000000000000E-002    3.230475978373372E-004
 -1.040000000000000E-002    3.386287092975679E-004
 -1.030000000000000E-002    3.548903818077333E-004
 -1.020000000000000E-002    3.718586413191387E-004
 -1.010000000000000E-002    3.895604516486806E-004
 -1.000000000000000E-002    4.080236862777493E-004
 -9.899999999999999E-003    4.272771695153611E-004
 -9.800000000000000E-003    4.473506447880997E-004
 -9.699999999999999E-003    4.682748078065077E-004
 -9.599999999999999E-003    4.900812863321254E-004
 -9.500000000000000E-003    5.128026452960679E-004
 -9.399999999999999E-003    5.364723697699344E-004
 -9.299999999999999E-003    5.611248323279715E-004
 -9.200000000000000E-003    5.867954268014698E-004
 -9.099999999999999E-003    6.135203039446036E-004
 -8.999999999999999E-003    6.413366813416392E-004
 -8.900000000000000E-003    6.702826271658261E-004
 -8.799999999999999E-003    7.003971794887216E-004
 -8.699999999999999E-003    7.317203880850419E-004
 -8.600000000000000E-003    7.642932279475872E-004
 -8.499999999999999E-003    7.981577018383618E-004
 -8.399999999999999E-003    8.333568620302552E-004
 -8.300000000000000E-003    8.699348848027266E-004
 -8.199999999999999E-003    9.079369003338586E-004
 -8.100000000000000E-003    9.474092622149094E-004
 -8.000000000000000E-003    9.883993440341023E-004
 -7.899999999999999E-003    1.030955667652922E-003
 -7.800000000000000E-003    1.075127952181587E-003
 -7.699999999999999E-003    1.120967001074614E-003
 -7.599999999999999E-003    1.168524698241703E-003
 -7.499999999999999E-003    1.217854121316080E-003
 -7.399999999999999E-003    1.269009436173145E-003
 -7.299999999999999E-003    1.322045824323757E-003
 -7.199999999999999E-003    1.377019746127606E-003
 -7.100000000000000E-003    1.433988541941490E-003
 -6.999999999999999E-003    1.493010799580828E-003
 -6.899999999999999E-003    1.554146006875733E-003
 -6.800000000000000E-003    1.617454803736470E-003
 -6.699999999999999E-003    1.682998960066205E-003
 -6.599999999999999E-003    1.750841227600231E-003
 -6.499999999999999E-003    1.821045402160053E-003
 -6.399999999999999E-003    1.893676396229471E-003
 -6.299999999999999E-003    1.968800057497308E-003
 -6.199999999999999E-003    2.046483270457201E-003
 -6.100000000000000E-003    2.126793965318073E-003
 -5.999999999999999E-003    2.209801210543430E-003
 -5.899999999999999E-003    2.295574736257856E-003
 -5.800000000000000E-003    2.384185287077438E-003
 -5.699999999999999E-003    2.475704563774302E-003
 -5.599999999999999E-003    2.570205146059650E-003
 -5.499999999999999E-003    2.667760542265481E-003
 -5.399999999999999E-003    2.768444733472550E-003
 -5.299999999999999E-003    2.872332628355831E-003
 -5.199999999999999E-003    2.979499869480979E-003
 -5.099999999999999E-003    3.090022736555369E-003
 -4.999999999999999E-003    3.203977826487985E-003
 -4.899999999999999E-003    3.321442219864083E-003
 -4.799999999999999E-003    3.442493802144452E-003
 -4.699999999999999E-003    3.567210750277991E-003
 -4.599999999999999E-003    3.695671316697108E-003
 -4.499999999999999E-003    3.827954168729792E-003
 -4.399999999999999E-003    3.964138434671069E-003
 -4.299999999999999E-003    4.104303108021896E-003
 -4.199999999999999E-003    4.248527261443816E-003
 -4.099999999999999E-003    4.396890359763300E-003
 -3.999999999999999E-003    4.549471460689202E-003
 -3.899999999999999E-003    4.706349606197327E-003
 -3.799999999999999E-003    4.867603441604361E-003
 -3.699999999999999E-003    5.033312003606714E-003
 -3.599999999999999E-003    5.203552864996394E-003
 -3.499999999999999E-003    5.378404289225753E-003
 -3.399999999999999E-003    5.557943013839340E-003
 -3.299999999999999E-003    5.742245343213765E-003
 -3.199999999999999E-003    5.931387400641326E-003
 -3.099999999999999E-003    6.125443321466690E-003
 -2.999999999999999E-003    6.324486917225765E-003
 -2.899999999999999E-003    6.528590246615553E-003
 -2.799999999999999E-003    6.737824792970496E-003
 -2.699999999999999E-003    6.952260040914078E-003
 -2.599999999999999E-003    7.171963833689804E-003
 -2.499999999999999E-003    7.397002015788062E-003
 -2.399999999999999E-003    7.627439601382319E-003
 -2.299999999999999E-003    7.863338653397490E-003
 -2.199999999999999E-003    8.104759712638028E-003
 -2.099999999999999E-003    8.351760484915455E-003
 -1.999999999999999E-003    8.604396926849899E-003
 -1.899999999999999E-003    8.862722383615676E-003
 -1.799999999999999E-003    9.126787453017905E-003
 -1.699999999999999E-003    9.396639443331713E-003
 -1.599999999999999E-003    9.672323359062072E-003
 -1.499999999999999E-003    9.953880488945060E-003
 -1.399999999999999E-003    1.024134948820838E-002
 -1.299999999999999E-003    1.053476535524019E-002
 -1.199999999999999E-003    1.083415905459926E-002
 -1.099999999999999E-003    1.113955848631912E-002
 -9.999999999999989E-004    1.145098725002262E-002
 -8.999999999999990E-004    1.176846405966674E-002
 -7.999999999999990E-004    1.209200476759049E-002
 -6.999999999999989E-004    1.242161982195694E-002
 -5.999999999999990E-004    1.275731576982796E-002
 -4.999999999999989E-004    1.309909338147527E-002
 -3.999999999999989E-004    1.344694864516556E-002
 -2.999999999999989E-004    1.380087259172988E-002
 -1.999999999999989E-004    1.416085109807707E-002
 -9.999999999999892E-005    1.452686432071798E-002
  1.084202172485504E-018    1.489888577732628E-002
  1.000000000000011E-004    1.527688453309151E-002
  2.000000000000011E-004    1.566082230251720E-002
  3.000000000000011E-004    1.605065557794964E-002
  4.000000000000011E-004    1.644633249503061E-002
  5.000000000000011E-004    1.684779562903191E-002
  6.000000000000011E-004    1.725498066457748E-002
  7.000000000000011E-004    1.766781672603651E-002
  8.000000000000011E-004    1.808622519968852E-002
  9.000000000000012E-004    1.851011817499506E-002
  1.000000000000001E-003    1.893940293677171E-002
  1.100000000000001E-003    1.937397733915248E-002
  1.200000000000001E-003    1.981373314538664E-002
  1.300000000000001E-003    2.025855210571335E-002
  1.400000000000001E-003    2.070830882156804E-002
  1.500000000000001E-003    2.116286941073066E-002
  1.600000000000001E-003    2.162209284685731E-002
  1.700000000000001E-003    2.208582762452366E-002
  1.800000000000001E-003    2.255391403092194E-002
  1.900000000000001E-003    2.302618623690358E-002
  2.000000000000001E-003    2.350246702186498E-002
  2.100000000000001E-003    2.398257018995635E-002
  2.200000000000001E-003    2.446630171826495E-002
  2.300000000000001E-003    2.495345681754300E-002
  2.400000000000001E-003    2.544382437784298E-002
  2.500000000000001E-003    2.593718214418085E-002
  2.600000000000001E-003    2.643329773682872E-002
  2.700000000000001E-003    2.693193318850597E-002
  2.800000000000001E-003    2.743283507828663E-002
  2.900000000000001E-003    2.793574417790441E-002
  3.000000000000001E-003    2.844039219191135E-002
  3.100000000000001E-003    2.894649932609201E-002
  3.200000000000001E-003    2.945377736601192E-002
  3.300000000000001E-003    2.996192843636874E-002
  3.400000000000001E-003    3.047064380911338E-002
  3.500000000000001E-003    3.097960710468819E-002
  3.600000000000001E-003    3.148849286733852E-002
  3.700000000000001E-003    3.199696300443290E-002
  3.800000000000001E-003    3.250467117560037E-002
  3.900000000000001E-003    3.301126217864947E-002
  4.000000000000001E-003    3.351637221115390E-002
  4.100000000000001E-003    3.401962486896991E-002
  4.200000000000001E-003    3.452063774553810E-002
  4.300000000000001E-003    3.501901784879678E-002
  4.400000000000001E-003    3.551436022176870E-002
  4.500000000000001E-003    3.600625964499538E-002
  4.600000000000002E-003    3.649429312286873E-002
  4.700000000000001E-003    3.697803435617948E-002
  4.800000000000001E-003    3.745704905767254E-002
  4.900000000000002E-003    3.793089159679924E-002
  5.000000000000001E-003    3.839911076121987E-002
  5.100000000000001E-003    3.886125007453434E-002
  5.200000000000001E-003    3.931684061822444E-002
  5.300000000000002E-003    3.976540759848226E-002
  5.400000000000001E-003    4.020647466948339E-002
  5.500000000000001E-003    4.063955162067394E-002
  5.600000000000002E-003    4.106414802315730E-002
  5.700000000000001E-003    4.147976349763091E-002
  5.800000000000001E-003    4.188589449609433E-002
  5.900000000000002E-003    4.228202970614561E-002
  6.000000000000001E-003    4.266765617320165E-002
  6.100000000000001E-003    4.304225263230332E-002
  6.200000000000002E-003    4.340529953709639E-002
  6.300000000000002E-003    4.375626455692709E-002
  6.400000000000001E-003    4.409462408039694E-002
  6.500000000000001E-003    4.441983920024459E-002
  6.600000000000002E-003    4.473137655779354E-002
  6.700000000000001E-003    4.502869687415100E-002
  6.800000000000001E-003    4.531126182396317E-002
  6.900000000000002E-003    4.557852945784718E-002
  7.000000000000001E-003    4.582995975713947E-002
  7.100000000000001E-003    4.606500675375483E-002
  7.200000000000002E-003    4.628313271701710E-002
  7.300000000000002E-003    4.648379383077025E-002
  7.400000000000001E-003    4.666645530875436E-002
  7.500000000000001E-003    4.683057250303493E-002
  7.600000000000002E-003    4.697561232787215E-002
  7.700000000000001E-003    4.710103878059868E-002
  7.800000000000001E-003    4.720632250689680E-002
  7.900000000000001E-003    4.729094132027604E-002
  8.000000000000002E-003    4.735436727800373E-002
  8.100000000000001E-003    4.739608514922321E-002
  8.200000000000001E-003    4.741558645784914E-002
  8.300000000000002E-003    4.741236408229415E-002
  8.400000000000001E-003    4.738591833617589E-002
  8.500000000000002E-003    4.733575683469644E-002
  8.600000000000002E-003    4.726139604601513E-002
  8.700000000000001E-003    4.716236245014415E-002
  8.800000000000002E-003    4.703818534374083E-002
  8.900000000000002E-003    4.688840996152940E-002
  9.000000000000001E-003    4.671258693741333E-002
  9.100000000000002E-003    4.651028150320262E-002
  9.200000000000002E-003    4.628106526119416E-002
  9.300000000000001E-003    4.602452356470585E-002
  9.400000000000002E-003    4.574025314186055E-002
  9.500000000000001E-003    4.542786328412006E-002
  9.600000000000001E-003    4.508697847970993E-002
  9.700000000000002E-003    4.471723435869627E-002
  9.800000000000001E-003    4.431827954196565E-002
  9.900000000000001E-003    4.388978242011893E-002
  1.000000000000000E-002    4.343142006993898E-002
  1.010000000000000E-002    4.294288967387742E-002
  1.020000000000000E-002    4.242390195983711E-002
  1.030000000000000E-002    4.187418686210614E-002
  1.040000000000000E-002    4.129348506850609E-002
  1.050000000000000E-002    4.068156104538158E-002
  1.060000000000000E-002    4.003819526040100E-002
  1.070000000000000E-002    3.936318649404264E-002
  1.080000000000000E-002    3.865634783909534E-002
  1.090000000000000E-002    3.791751614748527E-002
  1.100000000000000E-002    3.714654497747999E-002
  1.110000000000000E-002    3.634330449788999E-002
  1.120000000000000E-002    3.550769083707281E-002
  1.130000000000000E-002    3.463961278987682E-002
  1.140000000000000E-002    3.373900438093472E-002
  1.150000000000000E-002    3.280582039908795E-002
  1.160000000000000E-002    3.184002915405344E-002
  1.170000000000000E-002    3.084162486437016E-002
  1.180000000000000E-002    2.981062424369020E-002
  1.190000000000000E-002    2.874705866734835E-002
  1.200000000000000E-002    2.765098618739601E-002
  1.210000000000000E-002    2.652248045163711E-002
  1.220000000000000E-002    2.536164033785740E-002
  1.230000000000000E-002    2.416858216847621E-002
  1.240000000000000E-002    2.294344694398923E-002
  1.250000000000000E-002    2.168639486584614E-002
  1.260000000000000E-002    2.039760605763724E-002
  1.270000000000000E-002    1.907728255429124E-002
  1.280000000000000E-002    1.772564528309720E-002
  1.290000000000000E-002    1.634293706531213E-002
  1.300000000000000E-002    1.492942257619588E-002
  1.310000000000000E-002    1.348538341724654E-002
  1.320000000000000E-002    1.201112437356258E-002
  1.330000000000000E-002    1.050696833062341E-002
  1.340000000000000E-002    8.973258234287556E-003
  1.350000000000000E-002    7.410355907594660E-003
  1.360000000000000E-002    5.818642154339957E-003
  1.370000000000000E-002    4.198516695687861E-003
  1.380000000000000E-002    2.550398285654273E-003
  1.390000000000000E-002    8.747213969919153E-004
  1.400000000000000E-002   -8.280602209165421E-004
  1.410000000000000E-002   -2.557475501631714E-003
  1.420000000000000E-002   -4.313039317838128E-003
  1.430000000000000E-002   -6.094249047569891E-003
  1.440000000000000E-002   -7.900586217391845E-003
  1.450000000000000E-002   -9.731518336199722E-003
  1.460000000000000E-002   -1.158649949570016E-002
  1.470000000000000E-002   -1.346496927455759E-002
  1.480000000000000E-002   -1.536635164146111E-002
  1.490000000000000E-002   -1.729006045012534E-002
  1.500000000000000E-002   -1.923549684205797E-002
  1.510000000000000E-002   -2.120205160083159E-002
  1.520000000000000E-002   -2.318910372335569E-002
  1.530000000000000E-002   -2.519602299141405E-002
  1.540000000000000E-002   -2.722216913122436E-002
  1.550000000000000E-002   -2.926689233380770E-002
  1.560000000000000E-002   -3.132953651207313E-002
  1.570000000000000E-002   -3.340943645332110E-002
  1.580000000000000E-002   -3.550592101321894E-002
  1.590000000000000E-002   -3.761831345964577E-002
  1.600000000000000E-002   -3.974593047538660E-002
  1.610000000000000E-002   -4.188808238576484E-002
  1.620000000000000E-002   -4.404408492953852E-002
  1.630000000000000E-002   -4.621323568683161E-002
  1.640000000000000E-002   -4.839483822233007E-002
  1.650000000000000E-002   -5.058819767709051E-002
  1.660000000000000E-002   -5.279260823632294E-002
  1.670000000000000E-002   -5.500737060920848E-002
  1.680000000000000E-002   -5.723177872900385E-002
  1.690000000000000E-002   -5.946513541913329E-002
  1.700000000000000E-002   -6.170673994539129E-002
  1.710000000000000E-002   -6.395589083224759E-002
  1.720000000000000E-002   -6.621189877065756E-002
  1.730000000000000E-002   -6.847406278817635E-002
  1.740000000000000E-002   -7.074169716197456E-002
  1.750000000000000E-002   -7.301412065153311E-002
  1.760000000000000E-002   -7.529064644156254E-002
  1.770000000000000E-002   -7.757060839849120E-002
  1.780000000000000E-002   -7.985333004534062E-002
  1.790000000000000E-002   -8.213815912168752E-002
  1.800000000000000E-002   -8.442443164274600E-002
  1.810000000000000E-002   -8.671150634469198E-002
  1.820000000000000E-002   -8.899873680524376E-002
  1.830000000000000E-002   -9.128549617031007E-002
  1.840000000000000E-002   -9.357116640843371E-002
  1.850000000000000E-002   -9.585512891032730E-002
  1.860000000000000E-002   -9.813677606001020E-002
  1.870000000000000E-002   -0.100415518075711     