 -4.000000000000000E-002    0.000000000000000E+000
 -3.990000000000000E-002    0.000000000000000E+000
 -3.980000000000000E-002    0.000000000000000E+000
 -3.970000000000000E-002    0.000000000000000E+000
 -3.960000000000000E-002    0.000000000000000E+000
 -3.950000000000000E-002    0.000000000000000E+000
 -3.940000000000000E-002    0.000000000000000E+000
 -3.930000000000000E-002    0.000000000000000E+000
 -3.920000000000000E-002    0.000000000000000E+000
 -3.910000000000000E-002    3.426411609775906E-031
 -3.900000000000000E-002    5.907709213980794E-030
 -3.890000000000000E-002    5.299820985583552E-029
 -3.880000000000000E-002    3.288145861318492E-028
 -3.870000000000000E-002    1.582299539446215E-027
 -3.860000000000000E-002    6.279320206551823E-027
 -3.850000000000000E-002    2.133402355269197E-026
 -3.840000000000000E-002    6.358633077682172E-026
 -3.830000000000000E-002    1.689777056775781E-025
 -3.820000000000000E-002    4.045251923059637E-025
 -3.810000000000000E-002    8.769346933706689E-025
 -3.800000000000000E-002    1.720716220366989E-024
 -3.790000000000000E-002    3.029799215302328E-024
 -3.780000000000000E-002    4.669392014079997E-024
 -3.770000000000000E-002    5.872703955992300E-024
 -3.760000000000000E-002    4.500939069066441E-024
 -3.750000000000000E-002   -4.154401485075909E-024
 -3.740000000000000E-002   -2.908726078056628E-023
 -3.730000000000000E-002   -8.570762427071829E-023
 -3.720000000000000E-002   -1.979711345366843E-022
 -3.710000000000000E-002   -3.995973932359224E-022
 -3.700000000000000E-002   -7.327942984978719E-022
 -3.690000000000000E-002   -1.242127865076745E-021
 -3.680000000000000E-002   -1.960467504589438E-021
 -3.670000000000000E-002   -2.883594666290316E-021
 -3.660000000000000E-002   -3.930517177962061E-021
 -3.650000000000000E-002   -4.888301447518737E-021
 -3.640000000000000E-002   -5.343842433215818E-021
 -3.630000000000000E-002   -4.610811315303486E-021
 -3.620000000000000E-002   -1.668044782655693E-021
 -3.610000000000000E-002    4.864731866210870E-021
 -3.600000000000000E-002    1.667818113920333E-020
 -3.590000000000000E-002    3.560848977414850E-020
 -3.580000000000000E-002    6.331157559412312E-020
 -3.570000000000000E-002    1.007396152330763E-019
 -3.560000000000000E-002    1.474054249236011E-019
 -3.550000000000000E-002    2.004592725967247E-019
 -3.540000000000000E-002    2.536600380138346E-019
 -3.530000000000000E-002    2.963946457183964E-019
 -3.520000000000000E-002    3.129784408176500E-019
 -3.510000000000000E-002    2.825407209148396E-019
 -3.500000000000000E-002    1.798438920414013E-019
 -3.490000000000000E-002   -2.262151783211441E-020
 -3.480000000000000E-002   -3.510075034103828E-019
 -3.470000000000000E-002   -8.248614457671545E-019
 -3.460000000000000E-002   -1.450461916371921E-018
 -3.450000000000000E-002   -2.213309713041180E-018
 -3.440000000000000E-002   -3.070781609188720E-018
 -3.430000000000000E-002   -3.946377225215224E-018
 -3.420000000000000E-002   -4.727316828234921E-018
 -3.410000000000000E-002   -5.267357867456475E-018
 -3.400000000000000E-002   -5.396473160530335E-018
 -3.390000000000000E-002   -4.938381942638202E-018
 -3.380000000000000E-002   -3.735756771726217E-018
 -3.370000000000000E-002   -1.681334831753082E-018
 -3.360000000000000E-002    1.248831151885463E-018
 -3.350000000000000E-002    4.965744421453571E-018
 -3.340000000000000E-002    9.248974925609402E-018
 -3.330000000000000E-002    1.374771716353685E-017
 -3.320000000000000E-002    1.800941069651776E-017
 -3.310000000000000E-002    2.154164645123303E-017
 -3.300000000000000E-002    2.390866896654813E-017
 -3.290000000000000E-002    2.485711534557088E-017
 -3.280000000000000E-002    2.445711029630478E-017
 -3.270000000000000E-002    2.323535975997594E-017
 -3.260000000000000E-002    2.226786610998546E-017
 -3.250000000000000E-002    2.319320424915950E-017
 -3.240000000000000E-002    2.810530450631262E-017
 -3.230000000000000E-002    3.928951080046226E-017
 -3.220000000000000E-002    5.877943448487446E-017
 -3.210000000000000E-002    8.773559264016561E-017
 -3.200000000000000E-002    1.256798408766658E-016
 -3.190000000000000E-002    1.696605005324065E-016
 -3.180000000000000E-002    2.134666451176091E-016
 -3.170000000000000E-002    2.470516793396451E-016
 -3.160000000000000E-002    2.563559824141227E-016
 -3.150000000000000E-002    2.237295838811596E-016
 -3.140000000000000E-002    1.291376505666633E-016
 -3.130000000000000E-002   -4.772208885863455E-017
 -3.120000000000000E-002   -3.243540277780600E-016
 -3.110000000000000E-002   -7.115474427750183E-016
 -3.100000000000000E-002   -1.208865721503325E-015
 -3.090000000000000E-002   -1.799978914515231E-015
 -3.080000000000000E-002   -2.448453235142299E-015
 -3.070000000000000E-002   -3.094748484170468E-015
 -3.060000000000000E-002   -3.655257970154288E-015
 -3.050000000000000E-002   -4.024208707124295E-015
 -3.040000000000000E-002   -4.079107178443425E-015
 -3.030000000000000E-002   -3.690153582218197E-015
 -3.020000000000000E-002   -2.733647670421804E-015
 -3.010000000000000E-002   -1.108894340798344E-015
 -3.000000000000000E-002    1.242466569179662E-015
 -2.990000000000000E-002    4.316390996490174E-015
 -2.980000000000000E-002    8.027846317324093E-015
 -2.970000000000000E-002    1.219633478944801E-014
 -2.960000000000000E-002    1.653831294168826E-014
 -2.950000000000000E-002    2.066913409829021E-014
 -2.940000000000000E-002    2.411666212881118E-014
 -2.930000000000000E-002    2.634778802411638E-014
 -2.920000000000000E-002    2.680789804581073E-014
 -2.910000000000000E-002    2.497183278352400E-014
 -2.900000000000000E-002    2.040327383550270E-014
 -2.890000000000000E-002    1.281794653620505E-014
 -2.880000000000000E-002    2.144718316180788E-015
 -2.870000000000000E-002   -1.142218949951832E-014
 -2.860000000000000E-002   -2.738689595688447E-014
 -2.850000000000000E-002   -4.493790759392169E-014
 -2.840000000000000E-002   -6.296164092564227E-014
 -2.830000000000000E-002   -8.008636803934722E-014
 -2.820000000000000E-002   -9.475680798744017E-014
 -2.810000000000000E-002   -1.053364097840751E-013
 -2.800000000000000E-002   -1.102312059236584E-013
 -2.790000000000000E-002   -1.080261154583116E-013
 -2.780000000000000E-002   -9.762270158868056E-014
 -2.770000000000000E-002   -7.836579528159736E-014
 -2.760000000000000E-002   -5.014708186321449E-014
 -2.750000000000000E-002   -1.347483601496679E-014
 -2.740000000000000E-002    3.049792732589865E-014
 -2.730000000000000E-002    7.999089580590775E-014
 -2.720000000000000E-002    1.326590503644054E-013
 -2.710000000000000E-002    1.856955006922833E-013
 -2.700000000000000E-002    2.359658372188486E-013
 -2.690000000000000E-002    2.801625539640133E-013
 -2.680000000000000E-002    3.149669675354311E-013
 -2.670000000000000E-002    3.372071416521465E-013
 -2.660000000000000E-002    3.440025665749251E-013
 -2.650000000000000E-002    3.328909058948636E-013
 -2.640000000000000E-002    3.019371564589809E-013
 -2.630000000000000E-002    2.498299182918292E-013
 -2.620000000000000E-002    1.759744730584961E-013
 -2.610000000000000E-002    8.059317025087971E-014
 -2.600000000000000E-002   -3.515671105377311E-014
 -2.590000000000000E-002   -1.690422904632003E-013
 -2.580000000000000E-002   -3.175937119015024E-013
 -2.570000000000000E-002   -4.759349749486492E-013
 -2.560000000000000E-002   -6.376314760144507E-013
 -2.550000000000000E-002   -7.945908865154778E-013
 -2.540000000000000E-002   -9.370625713146177E-013
 -2.530000000000000E-002   -1.053786145795999E-012
 -2.520000000000000E-002   -1.132336719042659E-012
 -2.510000000000000E-002   -1.159704929344178E-012
 -2.500000000000000E-002   -1.123129523169822E-012
 -2.490000000000000E-002   -1.011174363087683E-012
 -2.480000000000000E-002   -8.150061359929075E-013
 -2.470000000000000E-002   -5.297932765974088E-013
 -2.460000000000000E-002   -1.561092459440697E-013
 -2.450000000000000E-002    2.988060754355186E-013
 -2.440000000000000E-002    8.200936126793367E-013
 -2.430000000000000E-002    1.384800798937984E-012
 -2.420000000000000E-002    1.962041399909145E-012
 -2.410000000000000E-002    2.513907533759057E-012
 -2.400000000000000E-002    2.997197555942229E-012
 -2.390000000000000E-002    3.365948321039406E-012
 -2.380000000000000E-002    3.574676387397243E-012
 -2.370000000000000E-002    3.582143884746178E-012
 -2.360000000000000E-002    3.355381430429234E-012
 -2.350000000000000E-002    2.873635821940543E-012
 -2.340000000000000E-002    2.131867229836258E-012
 -2.330000000000000E-002    1.143414027126529E-012
 -2.320000000000000E-002   -5.852498959379107E-014
 -2.310000000000000E-002   -1.420871392508167E-012
 -2.300000000000000E-002   -2.872282944798377E-012
 -2.290000000000000E-002   -4.326440458426412E-012
 -2.280000000000000E-002   -5.686888003614872E-012
 -2.270000000000000E-002   -6.853154948571015E-012
 -2.260000000000000E-002   -7.727743199572162E-012
 -2.250000000000000E-002   -8.223452812129568E-012
 -2.240000000000000E-002   -8.270455986181790E-012
 -2.230000000000000E-002   -7.822508534842617E-012
 -2.220000000000000E-002   -6.861747273042257E-012
 -2.210000000000000E-002   -5.401616931368179E-012
 -2.200000000000000E-002   -3.487630494332702E-012
 -2.190000000000000E-002   -1.195855408585886E-012
 -2.180000000000000E-002    1.370772018577378E-012
 -2.170000000000000E-002    4.088007515156256E-012
 -2.160000000000000E-002    6.817266612905037E-012
 -2.150000000000000E-002    9.413410774426106E-012
 -2.140000000000000E-002    1.173270663323657E-011
 -2.130000000000000E-002    1.364033736793717E-011
 -2.120000000000000E-002    1.501692483765960E-011
 -2.110000000000000E-002    1.576368495648332E-011
 -2.100000000000000E-002    1.580602794912133E-011
 -2.090000000000000E-002    1.509562542579353E-011
 -2.080000000000000E-002    1.361117730354782E-011
 -2.070000000000000E-002    1.135825937168677E-011
 -2.060000000000000E-002    8.368746322507960E-012
 -2.050000000000000E-002    4.700286418528171E-012
 -2.040000000000000E-002    4.362406114110943E-013
 -2.030000000000000E-002   -4.313679298652104E-012
 -2.020000000000000E-002   -9.412090795848707E-012
 -2.010000000000000E-002   -1.469223301989587E-011
 -2.000000000000000E-002   -1.995645757661174E-011
 -1.990000000000000E-002   -2.497573917823689E-011
 -1.980000000000000E-002   -2.949118977204795E-011
 -1.970000000000000E-002   -3.321858753376106E-011
 -1.960000000000000E-002   -3.585680478680903E-011
 -1.950000000000000E-002   -3.710073720527991E-011
 -1.940000000000000E-002   -3.665891166166585E-011
 -1.930000000000000E-002   -3.427536089770530E-011
 -1.920000000000000E-002   -2.975476465589697E-011
 -1.910000000000000E-002   -2.298919466087678E-011
 -1.900000000000000E-002   -1.398427562052507E-011
 -1.890000000000000E-002   -2.882110817515227E-012
 -1.880000000000000E-002    1.002180967056446E-011
 -1.870000000000000E-002    2.427045965926321E-011
 -1.860000000000000E-002    3.924823552926989E-011
 -1.850000000000000E-002    5.419669115886770E-011
 -1.840000000000000E-002    6.824377632318240E-011
 -1.830000000000000E-002    8.044614734725887E-011
 -1.820000000000000E-002    8.984293697725926E-011
 -1.810000000000000E-002    9.551805250141805E-011
 -1.800000000000000E-002    9.666705165956647E-011
 -1.790000000000000E-002    9.266386184321367E-011
 -1.780000000000000E-002    8.312196752101356E-011
 -1.770000000000000E-002    6.794498520120234E-011
 -1.760000000000000E-002    4.736164832849577E-011
 -1.750000000000000E-002    2.194146900326924E-011
 -1.740000000000000E-002   -7.411562811517232E-012
 -1.730000000000000E-002   -3.948804410391920E-011
 -1.720000000000000E-002   -7.282421153608582E-011
 -1.710000000000000E-002   -1.057722065857002E-010
 -1.700000000000000E-002   -1.365853583106426E-010
 -1.690000000000000E-002   -1.635128378074219E-010
 -1.680000000000000E-002   -1.848973718388754E-010
 -1.670000000000000E-002   -1.992694010072164E-010
 -1.660000000000000E-002   -2.054313490478119E-010
 -1.650000000000000E-002   -2.025267352015176E-010
 -1.640000000000000E-002   -1.900899017382868E-010
 -1.630000000000000E-002   -1.680742266618127E-010
 -1.620000000000000E-002   -1.368580757721229E-010
 -1.610000000000000E-002   -9.722987514667132E-011
 -1.600000000000000E-002   -5.035501499972165E-011
 -1.590000000000000E-002    2.271551466604654E-012
 -1.580000000000000E-002    5.888255501227610E-011
 -1.570000000000000E-002    1.175010285227100E-010
 -1.560000000000000E-002    1.760043473305040E-010
 -1.550000000000000E-002    2.321868431861775E-010
 -1.540000000000000E-002    2.838193750904085E-010
 -1.530000000000000E-002    3.287057280823914E-010
 -1.520000000000000E-002    3.647369192952890E-010
 -1.510000000000000E-002    3.899456916136770E-010
 -1.500000000000000E-002    4.025636657026396E-010
 -1.490000000000000E-002    4.010834415810117E-010
 -1.480000000000000E-002    3.843273556984688E-010
 -1.470000000000000E-002    3.515227845182675E-010
 -1.460000000000000E-002    3.023816951981485E-010
 -1.450000000000000E-002    2.371806709665179E-010
 -1.440000000000000E-002    1.568344641413617E-010
 -1.430000000000000E-002    6.295508196647542E-011
 -1.420000000000000E-002   -4.211315043961226E-011
 -1.410000000000000E-002   -1.552922120991146E-010
 -1.400000000000000E-002   -2.728110850728721E-010
 -1.390000000000000E-002   -3.902952671487273E-010
 -1.380000000000000E-002   -5.029080423841921E-010
 -1.370000000000000E-002   -6.055423307329606E-010
 -1.360000000000000E-002   -6.930576240596640E-010
 -1.350000000000000E-002   -7.605503895098929E-010
 -1.340000000000000E-002   -8.036434099044888E-010
 -1.330000000000000E-002   -8.187739226183760E-010
 -1.320000000000000E-002   -8.034596883792129E-010
 -1.310000000000000E-002   -7.565207784695976E-010
 -1.300000000000000E-002   -6.782361291976390E-010
 -1.290000000000000E-002   -5.704170488594948E-010
 -1.280000000000000E-002   -4.363860023342492E-010
 -1.270000000000000E-002   -2.808546377791696E-010
 -1.260000000000000E-002   -1.097029307047672E-010
 -1.250000000000000E-002    7.033021622744654E-011
 -1.240000000000000E-002    2.520274973140836E-010
 -1.230000000000000E-002    4.281203312119163E-010
 -1.220000000000000E-002    5.917335887571370E-010
 -1.210000000000000E-002    7.368156444015029E-010
 -1.200000000000000E-002    8.585218763271147E-010
 -1.190000000000000E-002    9.535209858724582E-010
 -1.180000000000000E-002    1.020200182999483E-009
 -1.170000000000000E-002    1.058749545980654E-009
 -1.160000000000000E-002    1.071116543293520E-009
 -1.150000000000000E-002    1.060830092344781E-009
 -1.140000000000000E-002    1.032702941757613E-009
 -1.130000000000000E-002    9.924292933569802E-010
 -1.120000000000000E-002    9.461031257923419E-010
 -1.110000000000000E-002    8.996884945311175E-010
 -1.100000000000000E-002    8.584743838951118E-010
 -1.090000000000000E-002    8.265508398394176E-010
 -1.080000000000000E-002    8.063395622866260E-010
 -1.070000000000000E-002    7.982102699481486E-010
 -1.060000000000000E-002    8.002097186101565E-010
 -1.050000000000000E-002    8.079236090083856E-010
 -1.040000000000000E-002    8.144856263378726E-010
 -1.030000000000000E-002    8.107425244917757E-010
 -1.020000000000000E-002    7.855756800656067E-010
 -1.010000000000000E-002    7.263768293321446E-010
 -1.000000000000000E-002    6.196679382408459E-010
 -9.899999999999999E-003    4.518521209691378E-010
 -9.800000000000000E-003    2.100789578447001E-010
 -9.699999999999999E-003   -1.167991959320427E-010
 -9.599999999999999E-003   -5.372059805803654E-010
 -9.500000000000000E-003   -1.055783208937548E-009
 -9.399999999999999E-003   -1.672338454902906E-009
 -9.299999999999999E-003   -2.380836814887083E-009
 -9.200000000000000E-003   -3.168486419980191E-009
 -9.099999999999999E-003   -4.014976832738145E-009
 -8.999999999999999E-003   -4.891928269868541E-009
 -8.900000000000000E-003   -5.762618047751365E-009
 -8.799999999999999E-003   -6.582049754175120E-009
 -8.699999999999999E-003   -7.297435729696403E-009
 -8.600000000000000E-003   -7.849142522854452E-009
 -8.499999999999999E-003   -8.172152266766135E-009
 -8.399999999999999E-003   -8.198076321353389E-009
 -8.300000000000000E-003   -7.857725271675749E-009
 -8.199999999999999E-003   -7.084231260292999E-009
 -8.100000000000000E-003   -5.816675431461724E-009
 -8.000000000000000E-003   -4.004159167314394E-009
 -7.899999999999999E-003   -1.610216336415790E-009
 -7.800000000000000E-003    1.382557018530568E-009
 -7.699999999999999E-003    4.967805801776776E-009
 -7.599999999999999E-003    9.110818672880154E-009
 -7.499999999999999E-003    1.374420710991560E-008
 -7.399999999999999E-003    1.876404834476030E-008
 -7.299999999999999E-003    2.402666748538622E-008
 -7.199999999999999E-003    2.934620878073772E-008
 -7.100000000000000E-003    3.449315135424181E-008
 -6.999999999999999E-003    3.919386656932673E-008
 -6.899999999999999E-003    4.313129471720619E-008
 -6.800000000000000E-003    4.594677818395653E-008
 -6.699999999999999E-003    4.724301160181721E-008
 -6.599999999999999E-003    4.658810325669954E-008
 -6.499999999999999E-003    4.352061347148730E-008
 -6.399999999999999E-003    3.755548534597730E-008
 -6.299999999999999E-003    2.819065588672313E-008
 -6.199999999999999E-003    1.491423764878455E-008
 -6.100000000000000E-003   -2.787992791004425E-009
 -5.999999999999999E-003   -2.542495938963414E-008
 -5.899999999999999E-003   -5.349277849557983E-008
 -5.800000000000000E-003   -8.746748609455334E-008
 -5.699999999999999E-003   -1.277983382366643E-007
 -5.599999999999999E-003   -1.749018240330338E-007
 -5.499999999999999E-003   -2.291564992633644E-007
 -5.399999999999999E-003   -2.908990132837704E-007
 -5.299999999999999E-003   -3.604212750225075E-007
 -5.199999999999999E-003   -4.379690666856694E-007
 -5.099999999999999E-003   -5.237422477516658E-007
 -4.999999999999999E-003   -6.178962018398607E-007
 -4.899999999999999E-003   -7.205454236777566E-007
 -4.799999999999999E-003   -8.317683901380074E-007
 -4.699999999999999E-003   -9.516143294288940E-007
 -4.599999999999999E-003   -1.080111223256699E-006
 -4.499999999999999E-003   -1.217275589324960E-006
 -4.399999999999999E-003   -1.363123316692916E-006
 -4.299999999999999E-003   -1.517681527061879E-006
 -4.199999999999999E-003   -1.681001175772853E-006
 -4.099999999999999E-003   -1.853170029652371E-006
 -3.999999999999999E-003   -2.034325439218069E-006
 -3.899999999999999E-003   -2.224667128911484E-006
 -3.799999999999999E-003   -2.424468264194269E-006
 -3.699999999999999E-003   -2.634086506396776E-006
 -3.599999999999999E-003   -2.853972579174164E-006
 -3.499999999999999E-003   -3.084678213622774E-006
 -3.399999999999999E-003   -3.326860199930914E-006
 -3.299999999999999E-003   -3.581284406260779E-006
 -3.199999999999999E-003   -3.848827062355118E-006
 -3.099999999999999E-003   -4.130472498577166E-006
 -2.999999999999999E-003   -4.427311209527886E-006
 -2.899999999999999E-003   -4.740536637222559E-006
 -2.799999999999999E-003   -5.071436961194027E-006
 -2.699999999999999E-003   -5.421391552933574E-006
 -2.599999999999999E-003   -5.791862655999528E-006
 -2.499999999999999E-003   -6.184388596458597E-006
 -2.399999999999999E-003   -6.600577024763713E-006
 -2.299999999999999E-003   -7.042099778867681E-006
 -2.199999999999999E-003   -7.510687241504642E-006
 -2.099999999999999E-003   -8.008124622241251E-006
 -1.999999999999999E-003   -8.536248379671886E-006
 -1.899999999999999E-003   -9.096945443008520E-006
 -1.799999999999999E-003   -9.692153759168292E-006
 -1.699999999999999E-003   -1.032386251569061E-005
 -1.599999999999999E-003   -1.099411245466396E-005
 -1.499999999999999E-003   -1.170500190049161E-005
 -1.399999999999999E-003   -1.245869200261791E-005
 -1.299999999999999E-003   -1.325740901769941E-005
 -1.199999999999999E-003   -1.410345512845608E-005
 -1.099999999999999E-003   -1.499921225499589E-005
 -9.999999999999989E-004   -1.594715311956002E-005
 -8.999999999999990E-004   -1.694985303712478E-005
 -7.999999999999990E-004   -1.801000121014597E-005
 -6.999999999999989E-004   -1.913041018919426E-005
 -5.999999999999990E-004   -2.031403337364921E-005
 -4.999999999999989E-004   -2.156397673002114E-005
 -3.999999999999989E-004   -2.288351909765717E-005
 -2.999999999999989E-004   -2.427612604904443E-005
 -1.999999999999989E-004   -2.574546564266793E-005
 -9.999999999999892E-005   -2.729542521510015E-005
  1.084202172485504E-018   -2.893012571045558E-005
  1.000000000000011E-004   -3.065394141154915E-005
  2.000000000000011E-004   -3.247150487897758E-005
  3.000000000000011E-004   -3.438772210330126E-005
  4.000000000000011E-004   -3.640778285630062E-005
  5.000000000000011E-004   -3.853716141309270E-005
  6.000000000000011E-004   -4.078162857600677E-005
  7.000000000000011E-004   -4.314724503335589E-005
  8.000000000000011E-004   -4.564036063248797E-005
  9.000000000000012E-004   -4.826762425842219E-005
  1.000000000000001E-003   -5.103596855397596E-005
  1.100000000000001E-003   -5.395261396891918E-005
  1.200000000000001E-003   -5.702506036796082E-005
  1.300000000000001E-003   -6.026109289379244E-005
  1.400000000000001E-003   -6.366877138220469E-005
  1.500000000000001E-003   -6.725644997149006E-005
  1.600000000000001E-003   -7.103276649709757E-005
  1.700000000000001E-003   -7.500665178419601E-005
  1.800000000000001E-003   -7.918736218963520E-005
  1.900000000000001E-003   -8.358446808389938E-005
  2.000000000000001E-003   -8.820789549256165E-005
  2.100000000000001E-003   -9.306793652542848E-005
  2.200000000000001E-003   -9.817526981556731E-005
  2.300000000000001E-003   -1.035410034023389E-004
  2.400000000000001E-003   -1.091766914855558E-004
  2.500000000000001E-003   -1.150943698299158E-004
  2.600000000000001E-003   -1.213065918481703E-004
  2.700000000000001E-003   -1.278264417147626E-004
  2.800000000000001E-003   -1.346675751660311E-004
  2.900000000000001E-003   -1.418442570888527E-004
  3.000000000000001E-003   -1.493713680766400E-004
  3.100000000000001E-003   -1.572644642069150E-004
  3.200000000000001E-003   -1.655397677794944E-004
  3.300000000000001E-003   -1.742141968793840E-004
  3.400000000000001E-003   -1.833053994089951E-004
  3.500000000000001E-003   -1.928317474122296E-004
  3.600000000000001E-003   -2.028123644332560E-004
  3.700000000000001E-003   -2.132671426093439E-004
  3.800000000000001E-003   -2.242167420179470E-004
  3.900000000000001E-003   -2.356825975836219E-004
  4.000000000000001E-003   -2.476869472607773E-004
  4.100000000000001E-003   -2.602528034768020E-004
  4.200000000000001E-003   -2.734040300765562E-004
  4.300000000000001E-003   -2.871652553750495E-004
  4.400000000000001E-003   -3.015619508408451E-004
  4.500000000000001E-003   -3.166204027569591E-004
  4.600000000000002E-003   -3.323677253725675E-004
  4.700000000000001E-003   -3.488319146574560E-004
  4.800000000000001E-003   -3.660417856744850E-004
  4.900000000000002E-003   -3.840271019575635E-004
  5.000000000000001E-003   -4.028184946875615E-004
  5.100000000000001E-003   -4.224475315170297E-004
  5.200000000000001E-003   -4.429467793290058E-004
  5.300000000000002E-003   -4.643497491625222E-004
  5.400000000000001E-003   -4.866910356263786E-004
  5.500000000000001E-003   -5.100062235070798E-004
  5.600000000000002E-003   -5.343320913673974E-004
  5.700000000000001E-003   -5.597064782250175E-004
  5.800000000000001E-003   -5.861684331594408E-004
  5.900000000000002E-003   -6.137581866826315E-004
  6.000000000000001E-003   -6.425172904338989E-004
  6.100000000000001E-003   -6.724885438159618E-004
  6.200000000000002E-003   -7.037160573606161E-004
  6.300000000000002E-003   -7.362453252598629E-004
  6.400000000000001E-003   -7.701232174159174E-004
  6.500000000000001E-003   -8.053979887170507E-004
  6.600000000000002E-003   -8.421193329679433E-004
  6.700000000000001E-003   -8.803383476116733E-004
  6.800000000000001E-003   -9.201076511991539E-004
  6.900000000000002E-003   -9.614813730777404E-004
  7.000000000000001E-003   -1.004515042942742E-003
  7.100000000000001E-003   -1.049265673207767E-003
  7.200000000000002E-003   -1.095791911916146E-003
  7.300000000000002E-003   -1.144153879031386E-003
  7.400000000000001E-003   -1.194413067837701E-003
  7.500000000000001E-003   -1.246632645344266E-003
  7.600000000000002E-003   -1.300877226219448E-003
  7.700000000000001E-003   -1.357212991988883E-003
  7.800000000000001E-003   -1.415707645857718E-003
  7.900000000000001E-003   -1.476430235620668E-003
  8.000000000000002E-003   -1.539451433730154E-003
  8.100000000000001E-003   -1.604843473103386E-003
  8.200000000000001E-003   -1.672679981448874E-003
  8.300000000000002E-003   -1.743036055331769E-003
  8.400000000000001E-003   -1.815988352384400E-003
  8.500000000000002E-003   -1.891615007755569E-003
  8.600000000000002E-003   -1.969995686861472E-003
  8.700000000000001E-003   -2.051211399568132E-003
  8.800000000000002E-003   -2.135344678508044E-003
  8.900000000000002E-003   -2.222479840371972E-003
  9.000000000000001E-003   -2.312702232438064E-003
  9.100000000000002E-003   -2.406099235329296E-003
  9.200000000000002E-003   -2.502759280287856E-003
  9.300000000000001E-003   -2.602772547003590E-003
  9.400000000000002E-003   -2.706230878213756E-003
  9.500000000000001E-003   -2.813227323741390E-003
  9.600000000000001E-003   -2.923856419599459E-003
  9.700000000000002E-003   -3.038214487444694E-003
  9.800000000000001E-003   -3.156399133419756E-003
  9.900000000000001E-003   -3.278509549889024E-003
  1.000000000000000E-002   -3.404646065386284E-003
  1.010000000000000E-002   -3.534910606559627E-003
  1.020000000000000E-002   -3.669406463551315E-003
  1.030000000000000E-002   -3.808237624210418E-003
  1.040000000000000E-002   -3.951509939538576E-003
  1.050000000000000E-002   -4.099329720628271E-003
  1.060000000000000E-002   -4.251804741241207E-003
  1.070000000000000E-002   -4.409043252798376E-003
  1.080000000000000E-002   -4.571154885164969E-003
  1.090000000000000E-002   -4.738249135985279E-003
  1.100000000000000E-002   -4.910437219080244E-003
  1.110000000000000E-002   -5.087830043295720E-003
  1.120000000000000E-002   -5.270539531907059E-003
  1.130000000000000E-002   -5.458677290400009E-003
  1.140000000000000E-002   -5.652355939436884E-003
  1.150000000000000E-002   -5.851687813177789E-003
  1.160000000000000E-002   -6.056785790824091E-003
  1.170000000000000E-002   -6.267762177529586E-003
  1.180000000000000E-002   -6.484729818406096E-003
  1.190000000000000E-002   -6.707800877548112E-003
  1.200000000000000E-002   -6.937087521442320E-003
  1.210000000000000E-002   -7.172701071694583E-003
  1.220000000000000E-002   -7.414753013462817E-003
  1.230000000000000E-002   -7.663353946969863E-003
  1.240000000000000E-002   -7.918613591988834E-003
  1.250000000000000E-002   -8.180640658317733E-003
  1.260000000000000E-002   -8.449543611576481E-003
  1.270000000000000E-002   -8.725429371376024E-003
  1.280000000000000E-002   -9.008402584995901E-003
  1.290000000000000E-002   -9.298567889272302E-003
  1.300000000000000E-002   -9.596026835205508E-003
  1.310000000000000E-002   -9.900881222719333E-003
  1.320000000000000E-002   -1.021322883300699E-002
  1.330000000000000E-002   -1.053316588535358E-002
  1.340000000000000E-002   -1.086078661788341E-002
  1.350000000000000E-002   -1.119618276660850E-002
  1.360000000000000E-002   -1.153944186212509E-002
  1.370000000000000E-002   -1.189065005166522E-002
  1.380000000000000E-002   -1.224988831259750E-002
  1.390000000000000E-002   -1.261723658645126E-002
  1.400000000000000E-002   -1.299276942087057E-002
  1.410000000000000E-002   -1.337655740053347E-002
  1.420000000000000E-002   -1.376866896605696E-002
  1.430000000000000E-002   -1.416916599572540E-002
  1.440000000000000E-002   -1.457810688952876E-002
  1.450000000000000E-002   -1.499554467829108E-002
  1.460000000000000E-002   -1.542152694855917E-002
  1.470000000000000E-002   -1.585609754277908E-002
  1.480000000000000E-002   -1.629929373361976E-002
  1.490000000000000E-002   -1.675114789666108E-002
  1.500000000000000E-002   -1.721168527212278E-002
  1.510000000000000E-002   -1.768092607666982E-002
  1.520000000000000E-002   -1.815888371777757E-002
  1.530000000000000E-002   -1.864556394946559E-002
  1.540000000000000E-002   -1.914096907438205E-002
  1.550000000000000E-002   -1.964509031049493E-002
  1.560000000000000E-002   -2.015791367616241E-002
  1.570000000000000E-002   -2.067941695117782E-002
  1.580000000000000E-002   -2.120957096880902E-002
  1.590000000000000E-002   -2.174833795604717E-002
  1.600000000000000E-002   -2.229567368501395E-002
  1.610000000000000E-002   -2.285152269434492E-002
  1.620000000000000E-002   -2.341582151600880E-002
  1.630000000000000E-002   -2.398849765788694E-002
  1.640000000000000E-002   -2.456947064550639E-002
  1.650000000000000E-002   -2.515865048081593E-002
  1.660000000000000E-002   -2.575593461932167E-002
  1.670000000000000E-002   -2.636121248424092E-002
  1.680000000000000E-002   -2.697436564436734E-002
  1.690000000000000E-002   -2.759526069433876E-002
  1.700000000000000E-002   -2.822375551601174E-002
  1.710000000000000E-002   -2.885969571621870E-002
  1.720000000000000E-002   -2.950291766906968E-002
  1.730000000000000E-002   -3.015324380135482E-002
  1.740000000000000E-002   -3.081048894727594E-002
  1.750000000000000E-002   -3.147445090810902E-002
  1.760000000000000E-002   -3.214492014054403E-002
  1.770000000000000E-002   -3.282167013896201E-002
  1.780000000000000E-002   -3.350446717080568E-002
  1.790000000000000E-002   -3.419306337754487E-002
  1.800000000000000E-002   -3.488719298774325E-002
  1.810000000000000E-002   -3.558658707467867E-002
  1.820000000000000E-002   -3.629095829605525E-002
  1.830000000000000E-002   -3.700000831188221E-002
  1.840000000000000E-002   -3.771342107507413E-002
  1.850000000000000E-002   -3.843087693331858E-002
  1.860000000000000E-002   -3.915203338433472E-002
  1.870000000000000E-002   -3.987654298122670E-002