 -4.000000000000000E-002    0.000000000000000E+000
 -3.990000000000000E-002    0.000000000000000E+000
 -3.980000000000000E-002    0.000000000000000E+000
 -3.970000000000000E-002    0.000000000000000E+000
 -3.960000000000000E-002    0.000000000000000E+000
 -3.950000000000000E-002   -1.521567420040277E-019
 -3.940000000000000E-002   -1.443927232767746E-018
 -3.930000000000000E-002   -7.323853447177278E-018
 -3.920000000000000E-002   -2.620543748912238E-017
 -3.910000000000000E-002   -7.362659386549165E-017
 -3.900000000000000E-002   -1.711379300534195E-016
 -3.890000000000000E-002   -3.372652699728990E-016
 -3.880000000000000E-002   -5.650028256885214E-016
 -3.870000000000000E-002   -7.812585156389190E-016
 -3.860000000000000E-002   -7.873641144036255E-016
 -3.850000000000000E-002   -1.865559448113952E-016
 -3.840000000000000E-002    1.686215487267412E-015
 -3.830000000000000E-002    5.806122742190498E-015
 -3.820000000000000E-002    1.343651965078996E-014
 -3.810000000000000E-002    2.600285163390294E-014
 -3.800000000000000E-002    4.482497570867126E-014
 -3.790000000000000E-002    7.068419578586851E-014
 -3.780000000000000E-002    1.032272710401798E-013
 -3.770000000000000E-002    1.402473851089779E-013
 -3.760000000000000E-002    1.769278121153351E-013
 -3.750000000000000E-002    2.051819659856368E-013
 -3.740000000000000E-002    2.132642576266947E-013
 -3.730000000000000E-002    1.858501388613671E-013
 -3.720000000000000E-002    1.047796485721829E-013
 -3.710000000000000E-002   -4.938073400083010E-014
 -3.700000000000000E-002   -2.948826403502076E-013
 -3.690000000000000E-002   -6.454905794866672E-013
 -3.680000000000000E-002   -1.106518128571222E-012
 -3.670000000000000E-002   -1.670559981907075E-012
 -3.660000000000000E-002   -2.313428756709368E-012
 -3.650000000000000E-002   -2.990924500899227E-012
 -3.640000000000000E-002   -3.637126636162986E-012
 -3.630000000000000E-002   -4.164871012241262E-012
 -3.620000000000000E-002   -4.468952871890618E-012
 -3.610000000000000E-002   -4.432370964880971E-012
 -3.600000000000000E-002   -3.935615278199493E-012
 -3.590000000000000E-002   -2.868622170116681E-012
 -3.580000000000000E-002   -1.144623856425432E-012
 -3.570000000000000E-002    1.285247860296255E-012
 -3.560000000000000E-002    4.418025792002400E-012
 -3.550000000000000E-002    8.187213734814215E-012
 -3.540000000000000E-002    1.245488574495089E-011
 -3.530000000000000E-002    1.700891491956053E-011
 -3.520000000000000E-002    2.156628515093236E-011
 -3.510000000000000E-002    2.578289962517179E-011
 -3.500000000000000E-002    2.926968304333972E-011
 -3.490000000000000E-002    3.161414094513546E-011
 -3.480000000000000E-002    3.240600234659320E-011
 -3.470000000000000E-002    3.126516580716391E-011
 -3.460000000000000E-002    2.786998664779839E-011
 -3.450000000000000E-002    2.198401515510817E-011
 -3.440000000000000E-002    1.347959027552152E-011
 -3.430000000000000E-002    2.357142836423906E-012
 -3.420000000000000E-002   -1.124037426942336E-011
 -3.410000000000000E-002   -2.701795224359947E-011
 -3.400000000000000E-002   -4.452357104129481E-011
 -3.390000000000000E-002   -6.314732070575706E-011
 -3.380000000000000E-002   -8.212432488582715E-011
 -3.370000000000000E-002   -1.005415915631035E-010
 -3.360000000000000E-002   -1.173497741916444E-010
 -3.350000000000000E-002   -1.313815622872075E-010
 -3.340000000000000E-002   -1.413793227162460E-010
 -3.330000000000000E-002   -1.460350157474941E-010
 -3.320000000000000E-002   -1.440454207622693E-010
 -3.310000000000000E-002   -1.341849051300930E-010
 -3.300000000000000E-002   -1.153965395232257E-010
 -3.290000000000000E-002   -8.689985141379165E-011
 -3.280000000000000E-002   -4.831059075984934E-011
 -3.270000000000000E-002    2.353537824831940E-013
 -3.260000000000000E-002    5.796512890863286E-011
 -3.250000000000000E-002    1.233729235394564E-010
 -3.240000000000000E-002    1.941601115662055E-010
 -3.230000000000000E-002    2.672266710527009E-010
 -3.220000000000000E-002    3.387271073972455E-010
 -3.210000000000000E-002    4.041999358933105E-010
 -3.200000000000000E-002    4.587736437815750E-010
 -3.190000000000000E-002    4.974449660538402E-010
 -3.180000000000000E-002    5.154165357505883E-010
 -3.170000000000000E-002    5.084729939992913E-010
 -3.160000000000000E-002    4.733674914626616E-010
 -3.150000000000000E-002    4.081855856141148E-010
 -3.140000000000000E-002    3.126511664433719E-010
 -3.130000000000000E-002    1.883410355635486E-010
 -3.120000000000000E-002    3.877970916464808E-011
 -3.110000000000000E-002   -1.306049062448506E-010
 -3.100000000000000E-002   -3.126726831993201E-010
 -3.090000000000000E-002   -4.989034886686586E-010
 -3.080000000000000E-002   -6.798510265436032E-010
 -3.070000000000000E-002   -8.456864050265793E-010
 -3.060000000000000E-002   -9.867897175130689E-010
 -3.050000000000000E-002   -1.094342638868633E-009
 -3.040000000000000E-002   -1.160873814508273E-009
 -3.030000000000000E-002   -1.180714275088019E-009
 -3.020000000000000E-002   -1.150327843174927E-009
 -3.010000000000000E-002   -1.068496248880125E-009
 -3.000000000000000E-002   -9.363524252982384E-010
 -2.990000000000000E-002   -7.572713818944747E-010
 -2.980000000000000E-002   -5.366421538680520E-010
 -2.970000000000000E-002   -2.815539937624466E-010
 -2.960000000000000E-002   -4.350976434062391E-013
 -2.950000000000000E-002    2.973173833675271E-010
 -2.940000000000000E-002    6.016842379193847E-010
 -2.930000000000000E-002    9.023263084660055E-010
 -2.920000000000000E-002    1.188833359751333E-009
 -2.910000000000000E-002    1.450927271305127E-009
 -2.900000000000000E-002    1.678637413644238E-009
 -2.890000000000000E-002    1.862477942573448E-009
 -2.880000000000000E-002    1.993657486599519E-009
 -2.870000000000000E-002    2.064349149298025E-009
 -2.860000000000000E-002    2.068038583648959E-009
 -2.850000000000000E-002    1.999950153466800E-009
 -2.840000000000000E-002    1.857532490267396E-009
 -2.830000000000000E-002    1.640962900789144E-009
 -2.820000000000000E-002    1.353611080318961E-009
 -2.810000000000000E-002    1.002390732705318E-009
 -2.800000000000000E-002    5.979233258326747E-010
 -2.790000000000000E-002    1.544437768965885E-010
 -2.780000000000000E-002   -3.106042585029377E-010
 -2.770000000000000E-002   -7.773071552616694E-010
 -2.760000000000000E-002   -1.224344313295735E-009
 -2.750000000000000E-002   -1.630324668748817E-009
 -2.740000000000000E-002   -1.975308585294872E-009
 -2.730000000000000E-002   -2.242391905640229E-009
 -2.720000000000000E-002   -2.419209586602819E-009
 -2.710000000000000E-002   -2.499205823083036E-009
 -2.700000000000000E-002   -2.482524872649478E-009
 -2.690000000000000E-002   -2.376404695378958E-009
 -2.680000000000000E-002   -2.194993123131355E-009
 -2.670000000000000E-002   -1.958558597996055E-009
 -2.660000000000000E-002   -1.692125654457405E-009
 -2.650000000000000E-002   -1.423622115989838E-009
 -2.640000000000000E-002   -1.181677533081011E-009
 -2.630000000000000E-002   -9.932502396660499E-010
 -2.620000000000000E-002   -8.812816117533544E-010
 -2.610000000000000E-002   -8.625787056917277E-010
 -2.600000000000000E-002   -9.461083913703889E-010
 -2.590000000000000E-002   -1.131847405641093E-009
 -2.580000000000000E-002   -1.410286416328821E-009
 -2.570000000000000E-002   -1.762622723858762E-009
 -2.560000000000000E-002   -2.161621651682274E-009
 -2.550000000000000E-002   -2.573068315055156E-009
 -2.540000000000000E-002   -2.957693095338100E-009
 -2.530000000000000E-002   -3.273422849668335E-009
 -2.520000000000000E-002   -3.477805947867839E-009
 -2.510000000000000E-002   -3.530462435645944E-009
 -2.500000000000000E-002   -3.395435276355274E-009
 -2.490000000000000E-002   -3.043351264375047E-009
 -2.480000000000000E-002   -2.453331622588781E-009
 -2.470000000000000E-002   -1.614627187676508E-009
 -2.460000000000000E-002   -5.279752086816914E-010
 -2.450000000000000E-002    7.933216286528506E-010
 -2.440000000000000E-002    2.322588489522881E-009
 -2.430000000000000E-002    4.019267505127947E-009
 -2.420000000000000E-002    5.828760607091572E-009
 -2.410000000000000E-002    7.682704007586641E-009
 -2.400000000000000E-002    9.499806185947297E-009
 -2.390000000000000E-002    1.118739055038016E-008
 -2.380000000000000E-002    1.264380034322760E-008
 -2.370000000000000E-002    1.376179691255907E-008
 -2.360000000000000E-002    1.443305211431263E-008
 -2.350000000000000E-002    1.455375712376321E-008
 -2.340000000000000E-002    1.403128839016265E-008
 -2.330000000000000E-002    1.279176612191626E-008
 -2.320000000000000E-002    1.078822730632121E-008
 -2.310000000000000E-002    8.009052068163571E-009
 -2.300000000000000E-002    4.486175615867805E-009
 -2.290000000000000E-002    3.025873286351638E-010
 -2.280000000000000E-002   -4.401406746370145E-009
 -2.270000000000000E-002   -9.423658581058043E-009
 -2.260000000000000E-002   -1.449781864987875E-008
 -2.250000000000000E-002   -1.929345708344909E-008
 -2.240000000000000E-002   -2.341886037370064E-008
 -2.230000000000000E-002   -2.642652646996814E-008
 -2.220000000000000E-002   -2.782121921648346E-008
 -2.210000000000000E-002   -2.707028837918453E-008
 -2.200000000000000E-002   -2.361581858115660E-008
 -2.190000000000000E-002   -1.688805836133534E-008
 -2.180000000000000E-002   -6.319491294446582E-009
 -2.170000000000000E-002    8.641082240474669E-009
 -2.160000000000000E-002    2.851513359460798E-008
 -2.150000000000000E-002    5.378225673168049E-008
 -2.140000000000000E-002    8.486980516433487E-008
 -2.130000000000000E-002    1.221447795360344E-007
 -2.120000000000000E-002    1.659082573112763E-007
 -2.110000000000000E-002    2.163925747016554E-007
 -2.100000000000000E-002    2.737612338294639E-007
 -2.090000000000000E-002    3.381116915361820E-007
 -2.080000000000000E-002    4.094805998566995E-007
 -2.070000000000000E-002    4.878515100148325E-007
 -2.060000000000000E-002    5.731645124873277E-007
 -2.050000000000000E-002    6.653275502254643E-007
 -2.040000000000000E-002    7.642288649437721E-007
 -2.030000000000000E-002    8.697503208758877E-007
 -2.020000000000000E-002    9.817809150920754E-007
 -2.010000000000000E-002    1.100229907695780E-006
 -2.000000000000000E-002    1.225039783482263E-006
 -1.990000000000000E-002    1.356197482910102E-006
 -1.980000000000000E-002    1.493744979999477E-006
 -1.970000000000000E-002    1.637787790775138E-006
 -1.960000000000000E-002    1.788501975722158E-006
 -1.950000000000000E-002    1.946138991436739E-006
 -1.940000000000000E-002    2.111029283146085E-006
 -1.930000000000000E-002    2.283583799389260E-006
 -1.920000000000000E-002    2.464294559346601E-006
 -1.910000000000000E-002    2.653733858407975E-006
 -1.900000000000000E-002    2.852553240357235E-006
 -1.890000000000000E-002    3.061481916747971E-006
 -1.880000000000000E-002    3.281324864615479E-006
 -1.870000000000000E-002    3.512962557324700E-006
 -1.860000000000000E-002    3.757348439534977E-006
 -1.850000000000000E-002    4.015509424221211E-006
 -1.840000000000000E-002    4.288545494792210E-006
 -1.830000000000000E-002    4.577628682478448E-006
 -1.820000000000000E-002    4.884003773398452E-006
 -1.810000000000000E-002    5.208985683268513E-006
 -1.800000000000000E-002    5.553958181269039E-006
 -1.790000000000000E-002    5.920370558244697E-006
 -1.780000000000000E-002    6.309731990460349E-006
 -1.770000000000000E-002    6.723605824804079E-006
 -1.760000000000000E-002    7.163602036781898E-006
 -1.750000000000000E-002    7.631369333323711E-006
 -1.740000000000000E-002    8.128583606757761E-006
 -1.730000000000000E-002    8.656941209733076E-006
 -1.720000000000000E-002    9.218151459909969E-006
 -1.710000000000000E-002    9.813927479605330E-006
 -1.700000000000000E-002    1.044598644164838E-005
 -1.690000000000000E-002    1.111604522356554E-005
 -1.680000000000000E-002    1.182582920005812E-005
 -1.670000000000000E-002    1.257707426177361E-005
 -1.660000000000000E-002    1.337154355971106E-005
 -1.650000000000000E-002    1.421104071990632E-005
 -1.640000000000000E-002    1.509743298907016E-005
 -1.630000000000000E-002    1.603267324126472E-005
 -1.620000000000000E-002    1.701882372689181E-005
 -1.610000000000000E-002    1.805808712107309E-005
 -1.600000000000000E-002    1.915283207033896E-005
 -1.590000000000000E-002    2.030561694993414E-005
 -1.580000000000000E-002    2.151922049454010E-005
 -1.570000000000000E-002    2.279665749857408E-005
 -1.560000000000000E-002    2.414119993686411E-005
 -1.550000000000000E-002    2.555639045432564E-005
 -1.540000000000000E-002    2.704605434135185E-005
 -1.530000000000000E-002    2.861429644268496E-005
 -1.520000000000000E-002    3.026550935082242E-005
 -1.510000000000000E-002    3.200436572701118E-005
 -1.500000000000000E-002    3.383580855987229E-005
 -1.490000000000000E-002    3.576503961808170E-005
 -1.480000000000000E-002    3.779750932297754E-005
 -1.470000000000000E-002    3.993890028063788E-005
 -1.460000000000000E-002    4.219510785840538E-005
 -1.450000000000000E-002    4.457223362852501E-005
 -1.440000000000000E-002    4.707656762361093E-005
 -1.430000000000000E-002    4.971458132292490E-005
 -1.420000000000000E-002    5.249292150040856E-005
 -1.410000000000000E-002    5.541841485267722E-005
 -1.400000000000000E-002    5.849806861979872E-005
 -1.390000000000000E-002    6.173907526988875E-005
 -1.380000000000000E-002    6.514882827226766E-005
 -1.370000000000000E-002    6.873494945675578E-005
 -1.360000000000000E-002    7.250530607291416E-005
 -1.350000000000000E-002    7.646802784043493E-005
 -1.340000000000000E-002    8.063154511556297E-005
 -1.330000000000000E-002    8.500460673646915E-005
 -1.320000000000000E-002    8.959630782170514E-005
 -1.310000000000000E-002    9.441612129786540E-005
 -1.300000000000000E-002    9.947391597582619E-005
 -1.290000000000000E-002    1.047799880629687E-004
 -1.280000000000000E-002    1.103450525485895E-004
 -1.270000000000000E-002    1.161802971768229E-004
 -1.260000000000000E-002    1.222973749777022E-004
 -1.250000000000000E-002    1.287084254240751E-004
 -1.240000000000000E-002    1.354260875807954E-004
 -1.230000000000000E-002    1.424635119712956E-004
 -1.220000000000000E-002    1.498343782094643E-004
 -1.210000000000000E-002    1.575529034281111E-004
 -1.200000000000000E-002    1.656338870622346E-004
 -1.190000000000000E-002    1.740927155456228E-004
 -1.180000000000000E-002    1.829453840002142E-004
 -1.170000000000000E-002    1.922085263718429E-004
 -1.160000000000000E-002    2.018994207435028E-004
 -1.150000000000000E-002    2.120360681212746E-004
 -1.140000000000000E-002    2.226371264640123E-004
 -1.130000000000000E-002    2.337220401687434E-004
 -1.120000000000000E-002    2.453109415198946E-004
 -1.110000000000000E-002    2.574247486779588E-004
 -1.100000000000000E-002    2.700851051818995E-004
 -1.090000000000000E-002    2.833144672703565E-004
 -1.080000000000000E-002    2.971360250350115E-004
 -1.070000000000000E-002    3.115737065348554E-004
 -1.060000000000000E-002    3.266521935967776E-004
 -1.050000000000000E-002    3.423969542857490E-004
 -1.040000000000000E-002    3.588341260030833E-004
 -1.030000000000000E-002    3.759906168409055E-004
 -1.020000000000000E-002    3.938940581485540E-004
 -1.010000000000000E-002    4.125728036824410E-004
 -1.000000000000000E-002    4.320558924609850E-004
 -9.899999999999999E-003    4.523731961569953E-004
 -9.800000000000000E-003    4.735553016733347E-004
 -9.699999999999999E-003    4.956335969724552E-004
 -9.599999999999999E-003    5.186402282008074E-004
 -9.500000000000000E-003    5.426082370468734E-004
 -9.399999999999999E-003    5.675714659373439E-004
 -9.299999999999999E-003    5.935647421115457E-004
 -9.200000000000000E-003    6.206238077383526E-004
 -9.099999999999999E-003    6.487853305269569E-004
 -8.999999999999999E-003    6.780870719420845E-004
 -8.900000000000000E-003    7.085677875388598E-004
 -8.799999999999999E-003    7.402673613335208E-004
 -8.699999999999999E-003    7.732267582016028E-004
 -8.600000000000000E-003    8.074881436174529E-004
 -8.499999999999999E-003    8.430948932146981E-004
 -8.399999999999999E-003    8.800914931724102E-004
 -8.300000000000000E-003    9.185237076642543E-004
 -8.199999999999999E-003    9.584385215809161E-004
 -8.100000000000000E-003    9.998841364737456E-004
 -8.000000000000000E-003    1.042910015142443E-003
 -7.899999999999999E-003    1.087566793113536E-003
 -7.800000000000000E-003    1.133906263940032E-003
 -7.699999999999999E-003    1.181981531996050E-003
 -7.599999999999999E-003    1.231846652626410E-003
 -7.499999999999999E-003    1.283556978508081E-003
 -7.399999999999999E-003    1.337168863548855E-003
 -7.299999999999999E-003    1.392739671560576E-003
 -7.199999999999999E-003    1.450327805902698E-003
 -7.100000000000000E-003    1.509992689687750E-003
 -6.999999999999999E-003    1.571794728252899E-003
 -6.899999999999999E-003    1.635795175300559E-003
 -6.800000000000000E-003    1.702056321642645E-003
 -6.699999999999999E-003    1.770641197610648E-003
 -6.599999999999999E-003    1.841614063039794E-003
 -6.499999999999999E-003    1.915039939236043E-003
 -6.399999999999999E-003    1.990984637359425E-003
 -6.299999999999999E-003    2.069514849656289E-003
 -6.199999999999999E-003    2.150698583682377E-003
 -6.100000000000000E-003    2.234604368111939E-003
 -5.999999999999999E-003    2.321301721628624E-003
 -5.899999999999999E-003    2.410861362360932E-003
 -5.800000000000000E-003    2.503354779735919E-003
 -5.699999999999999E-003    2.598854243198935E-003
 -5.599999999999999E-003    2.697432849046554E-003
 -5.499999999999999E-003    2.799164815325807E-003
 -5.399999999999999E-003    2.904125070978876E-003
 -5.299999999999999E-003    3.012389547961381E-003
 -5.199999999999999E-003    3.124034649244634E-003
 -5.099999999999999E-003    3.239137435186592E-003
 -4.999999999999999E-003    3.357775690163934E-003
 -4.899999999999999E-003    3.480027840997546E-003
 -4.799999999999999E-003    3.605972764082085E-003
 -4.699999999999999E-003    3.735689838823018E-003
 -4.599999999999999E-003    3.869258685336691E-003
 -4.499999999999999E-003    4.006758631726892E-003
 -4.399999999999999E-003    4.148270046960954E-003
 -4.299999999999999E-003    4.293872426654449E-003
 -4.199999999999999E-003    4.443645541654540E-003
 -4.099999999999999E-003    4.597669224935444E-003
 -3.999999999999999E-003    4.756022457854291E-003
 -3.899999999999999E-003    4.918783974530440E-003
 -3.799999999999999E-003    5.086032124795295E-003
 -3.699999999999999E-003    5.257844466270131E-003
 -3.599999999999999E-003    5.434298097112306E-003
 -3.499999999999999E-003    5.615468824824779E-003
 -3.399999999999999E-003    5.801432060231746E-003
 -3.299999999999999E-003    5.992262123037257E-003
 -3.199999999999999E-003    6.188032327813956E-003
 -3.099999999999999E-003    6.388814835762284E-003
 -2.999999999999999E-003    6.594680889579567E-003
 -2.899999999999999E-003    6.805700230285134E-003
 -2.799999999999999E-003    7.021940869217930E-003
 -2.699999999999999E-003    7.243470307375054E-003
 -2.599999999999999E-003    7.470353098790143E-003
 -2.499999999999999E-003    7.702653539057577E-003
 -2.399999999999999E-003    7.940433269150681E-003
 -2.299999999999999E-003    8.183751303642909E-003
 -2.199999999999999E-003    8.432665426959585E-003
 -2.099999999999999E-003    8.687231118528874E-003
 -1.999999999999999E-003    8.947501003267699E-003
 -1.899999999999999E-003    9.213524662471773E-003
 -1.799999999999999E-003    9.485349145535539E-003
 -1.699999999999999E-003    9.763018676197763E-003
 -1.599999999999999E-003    1.004657340782677E-002
 -1.499999999999999E-003    1.033605017345654E-002
 -1.399999999999999E-003    1.063148295528073E-002
 -1.299999999999999E-003    1.093290061496555E-002
 -1.199999999999999E-003    1.124032836198370E-002
 -1.099999999999999E-003    1.155378782255823E-002
 -9.999999999999989E-004    1.187329591184587E-002
 -8.999999999999990E-004    1.219886462398044E-002
 -7.999999999999990E-004    1.253050098969558E-002
 -6.999999999999989E-004    1.286820790900390E-002
 -5.999999999999990E-004    1.321198286442683E-002
 -4.999999999999989E-004    1.356181788545979E-002
 -3.999999999999989E-004    1.391769947858385E-002
 -2.999999999999989E-004    1.427960960670106E-002
 -1.999999999999989E-004    1.464752333537969E-002
 -9.999999999999892E-005    1.502140993116671E-002
  1.084202172485504E-018    1.540123437339526E-002
  1.000000000000011E-004    1.578695244810753E-002
  2.000000000000011E-004    1.617851597283462E-002
  3.000000000000011E-004    1.657586965549247E-002
  4.000000000000011E-004    1.697895109285918E-002
  5.000000000000011E-004    1.738769075805272E-002
  6.000000000000011E-004    1.780201333861573E-002
  7.000000000000011E-004    1.822183555301540E-002
  8.000000000000011E-004    1.864706683101181E-002
  9.000000000000012E-004    1.907760864637219E-002
  1.000000000000001E-003    1.951335410383418E-002
  1.100000000000001E-003    1.995419054683870E-002
  1.200000000000001E-003    2.039999419858998E-002
  1.300000000000001E-003    2.085063657376680E-002
  1.400000000000001E-003    2.130597760956804E-002
  1.500000000000001E-003    2.176586916038551E-002
  1.600000000000001E-003    2.223015625047776E-002
  1.700000000000001E-003    2.269867366915388E-002
  1.800000000000001E-003    2.317124778338234E-002
  1.900000000000001E-003    2.364769514823705E-002
  2.000000000000001E-003    2.412782348323066E-002
  2.100000000000001E-003    2.461143051433988E-002
  2.200000000000001E-003    2.509830504260160E-002
  2.300000000000001E-003    2.558822587871833E-002
  2.400000000000001E-003    2.608096322578248E-002
  2.500000000000001E-003    2.657627645051082E-002
  2.600000000000001E-003    2.707391612706857E-002
  2.700000000000001E-003    2.757362257390499E-002
  2.800000000000001E-003    2.807512624976416E-002
  2.900000000000001E-003    2.857814870991482E-002
  3.000000000000001E-003    2.908240001948358E-002
  3.100000000000001E-003    2.958758227042565E-002
  3.200000000000001E-003    3.009338645599935E-002
  3.300000000000001E-003    3.059949465827876E-002
  3.400000000000001E-003    3.110557903411026E-002
  3.500000000000001E-003    3.161130236938856E-002
  3.600000000000001E-003    3.211631944782830E-002
  3.700000000000001E-003    3.262027322567922E-002
  3.800000000000001E-003    3.312279828155656E-002
  3.900000000000001E-003    3.362352009752526E-002
  4.000000000000001E-003    3.412205314602941E-002
  4.100000000000001E-003    3.461800537964380E-002
  4.200000000000001E-003    3.511097277462634E-002
  4.300000000000001E-003    3.560054324513362E-002
  4.400000000000001E-003    3.608630042393415E-002
  4.500000000000001E-003    3.656781119655461E-002
  4.600000000000002E-003    3.704464030734176E-002
  4.700000000000001E-003    3.751634076240631E-002
  4.800000000000001E-003    3.798245909226512E-002
  4.900000000000002E-003    3.844253354344793E-002
  5.000000000000001E-003    3.889609393698272E-002
  5.100000000000001E-003    3.934266449937780E-002
  5.200000000000001E-003    3.978175900158044E-002
  5.300000000000002E-003    4.021288587939147E-002
  5.400000000000001E-003    4.063554861026614E-002
  5.500000000000001E-003    4.104924189383901E-002
  5.600000000000002E-003    4.145345616534342E-002
  5.700000000000001E-003    4.184767491190579E-002
  5.800000000000001E-003    4.223137662869776E-002
  5.900000000000002E-003    4.260403447820237E-002
  6.000000000000001E-003    4.296511934191211E-002
  6.100000000000001E-003    4.331409459069734E-002
  6.200000000000002E-003    4.365042093010074E-002
  6.300000000000002E-003    4.397355796642822E-002
  6.400000000000001E-003    4.428296072864378E-002
  6.500000000000001E-003    4.457807856159141E-002
  6.600000000000002E-003    4.485836459559359E-002
  6.700000000000001E-003    4.512326772587859E-002
  6.800000000000001E-003    4.537223996882489E-002
  6.900000000000002E-003    4.560472537468311E-002
  7.000000000000001E-003    4.582017277720310E-002
  7.100000000000001E-003    4.601803034236208E-002
  7.200000000000002E-003    4.619775204478759E-002
  7.300000000000002E-003    4.635878828159178E-002
  7.400000000000001E-003    4.650058931815496E-002
  7.500000000000001E-003    4.662261146347919E-002
  7.600000000000002E-003    4.672431405353550E-002
  7.700000000000001E-003    4.680516047124601E-002
  7.800000000000001E-003    4.686461584092973E-002
  7.900000000000001E-003    4.690215336112345E-002
  8.000000000000002E-003    4.691724763607469E-002
  8.100000000000001E-003    4.690938474043150E-002
  8.200000000000001E-003    4.687804827740438E-002
  8.300000000000002E-003    4.682273828213390E-002
  8.400000000000001E-003    4.674295419383170E-002
  8.500000000000002E-003    4.663820903553993E-002
  8.600000000000002E-003    4.650802451565429E-002
  8.700000000000001E-003    4.635192655664884E-002
  8.800000000000002E-003    4.616945805871240E-002
  8.900000000000002E-003    4.596016646999120E-002
  9.000000000000001E-003    4.572361410622375E-002
  9.100000000000002E-003    4.545937177714994E-002
  9.200000000000002E-003    4.516702376852959E-002
  9.300000000000001E-003    4.484616637642389E-002
  9.400000000000002E-003    4.449641039366824E-002
  9.500000000000001E-003    4.411737867237704E-002
  9.600000000000001E-003    4.370871056745240E-002
  9.700000000000002E-003    4.327005769142834E-002
  9.800000000000001E-003    4.280108756352553E-002
  9.900000000000001E-003    4.230148660833023E-002
  1.000000000000000E-002    4.177095538858090E-002
  1.010000000000000E-002    4.120921080975155E-002
  1.020000000000000E-002    4.061598916016867E-002
  1.030000000000000E-002    3.999103965420936E-002
  1.040000000000000E-002    3.933413514316063E-002
  1.050000000000000E-002    3.864506369242224E-002
  1.060000000000000E-002    3.792363338561672E-002
  1.070000000000000E-002    3.716966813433076E-002
  1.080000000000000E-002    3.638301540501076E-002
  1.090000000000000E-002    3.556354180449639E-002
  1.100000000000000E-002    3.471113233950162E-002
  1.110000000000000E-002    3.382569248318611E-002
  1.120000000000000E-002    3.290714769038513E-002
  1.130000000000000E-002    3.195544618783509E-002
  1.140000000000000E-002    3.097055514262410E-002
  1.150000000000000E-002    2.995246680535948E-002
  1.160000000000000E-002    2.890119261420100E-002
  1.170000000000000E-002    2.781676572086699E-002
  1.180000000000000E-002    2.669923839867394E-002
  1.190000000000000E-002    2.554869137895537E-002
  1.200000000000000E-002    2.436522242255560E-002
  1.210000000000000E-002    2.314895187264139E-002
  1.220000000000000E-002    2.190002465997275E-002
  1.230000000000000E-002    2.061860479756938E-002
  1.240000000000000E-002    1.930488075864398E-002
  1.250000000000000E-002    1.795906056752999E-002
  1.260000000000000E-002    1.658137607523804E-002
  1.270000000000000E-002    1.517207993911333E-002
  1.280000000000000E-002    1.373144621092371E-002
  1.290000000000000E-002    1.225977153414946E-002
  1.300000000000000E-002    1.075737136399384E-002
  1.310000000000000E-002    9.224585144433826E-003
  1.320000000000000E-002    7.661770699978301E-003
  1.330000000000000E-002    6.069307680181799E-003
  1.340000000000000E-002    4.447595484652223E-003
  1.350000000000000E-002    2.797053573649506E-003
  1.360000000000000E-002    1.118121267540447E-003
  1.370000000000000E-002   -5.887443784814046E-004
  1.380000000000000E-002   -2.323066226152230E-003
  1.390000000000000E-002   -4.084349841568363E-003
  1.400000000000000E-002   -5.872082908314638E-003
  1.410000000000000E-002   -7.685734947230126E-003
  1.420000000000000E-002   -9.524760372850175E-003
  1.430000000000000E-002   -1.138859529782230E-002
  1.440000000000000E-002   -1.327666122504114E-002
  1.450000000000000E-002   -1.518836435560179E-002
  1.460000000000000E-002   -1.712309453723163E-002
  1.470000000000000E-002   -1.908023100800983E-002
  1.480000000000000E-002   -2.105913767168816E-002
  1.490000000000000E-002   -2.305916456218694E-002
  1.500000000000000E-002   -2.507964875517915E-002
  1.510000000000000E-002   -2.711991916109188E-002
  1.520000000000000E-002   -2.917929313288038E-002
  1.530000000000000E-002   -3.125707388841713E-002
  1.540000000000000E-002   -3.335255770332173E-002
  1.550000000000000E-002   -3.546503144237902E-002
  1.560000000000000E-002   -3.759377386236989E-002
  1.570000000000000E-002   -3.973806017454197E-002
  1.580000000000000E-002   -4.189715025754439E-002
  1.590000000000000E-002   -4.407030632682066E-002
  1.600000000000000E-002   -4.625678238291409E-002
  1.610000000000000E-002   -4.845582789924595E-002
  1.620000000000000E-002   -5.066668806951673E-002
  1.630000000000000E-002   -5.288860431392430E-002
  1.640000000000000E-002   -5.512082323725447E-002
  1.650000000000000E-002   -5.736257782111670E-002
  1.660000000000000E-002   -5.961310502514644E-002
  1.670000000000000E-002   -6.187164862502836E-002
  1.680000000000000E-002   -6.413744332511639E-002
  1.690000000000000E-002   -6.640972486389331E-002
  1.700000000000000E-002   -6.868774461989019E-002
  1.710000000000000E-002   -7.097074075102762E-002
  1.720000000000000E-002   -7.325795732774272E-002
  1.730000000000000E-002   -7.554864954094755E-002
  1.740000000000000E-002   -7.784207546732785E-002
  1.750000000000000E-002   -8.013749473785389E-002
  1.760000000000000E-002   -8.243416771843212E-002
  1.770000000000000E-002   -8.473136872033485E-002
  1.780000000000000E-002   -8.702838300501216E-002
  1.790000000000000E-002   -8.932449371727202E-002
  1.800000000000000E-002   -9.161899788280289E-002
  1.810000000000000E-002   -9.391119785991191E-002
  1.820000000000000E-002   -9.620040065562621E-002
  1.830000000000000E-002   -9.848593413547664E-002
  1.840000000000000E-002   -0.100767124815222     
  1.850000000000000E-002   -0.103043314095638     
  1.860000000000000E-002   -0.105313847124821     
  1.870000000000000E-002   -0.107578093877780     