 -4.000000000000000E-002    0.000000000000000E+000
 -3.990000000000000E-002    0.000000000000000E+000
 -3.980000000000000E-002    0.000000000000000E+000
 -3.970000000000000E-002    0.000000000000000E+000
 -3.960000000000000E-002    0.000000000000000E+000
 -3.950000000000000E-002    0.000000000000000E+000
 -3.940000000000000E-002    0.000000000000000E+000
 -3.930000000000000E-002    0.000000000000000E+000
 -3.920000000000000E-002    0.000000000000000E+000
 -3.910000000000000E-002    0.000000000000000E+000
 -3.900000000000000E-002    0.000000000000000E+000
 -3.890000000000000E-002    0.000000000000000E+000
 -3.880000000000000E-002    0.000000000000000E+000
 -3.870000000000000E-002    0.000000000000000E+000
 -3.860000000000000E-002    0.000000000000000E+000
 -3.850000000000000E-002    0.000000000000000E+000
 -3.840000000000000E-002    0.000000000000000E+000
 -3.830000000000000E-002    0.000000000000000E+000
 -3.820000000000000E-002    0.000000000000000E+000
 -3.810000000000000E-002    0.000000000000000E+000
 -3.800000000000000E-002    0.000000000000000E+000
 -3.790000000000000E-002    0.000000000000000E+000
 -3.780000000000000E-002    0.000000000000000E+000
 -3.770000000000000E-002    0.000000000000000E+000
 -3.760000000000000E-002    0.000000000000000E+000
 -3.750000000000000E-002    0.000000000000000E+000
 -3.740000000000000E-002    0.000000000000000E+000
 -3.730000000000000E-002    0.000000000000000E+000
 -3.720000000000000E-002    0.000000000000000E+000
 -3.710000000000000E-002    0.000000000000000E+000
 -3.700000000000000E-002    0.000000000000000E+000
 -3.690000000000000E-002    0.000000000000000E+000
 -3.680000000000000E-002    0.000000000000000E+000
 -3.670000000000000E-002    0.000000000000000E+000
 -3.660000000000000E-002    0.000000000000000E+000
 -3.650000000000000E-002    0.000000000000000E+000
 -3.640000000000000E-002    0.000000000000000E+000
 -3.630000000000000E-002    0.000000000000000E+000
 -3.620000000000000E-002    0.000000000000000E+000
 -3.610000000000000E-002    0.000000000000000E+000
 -3.600000000000000E-002    0.000000000000000E+000
 -3.590000000000000E-002    0.000000000000000E+000
 -3.580000000000000E-002    0.000000000000000E+000
 -3.570000000000000E-002    0.000000000000000E+000
 -3.560000000000000E-002    0.000000000000000E+000
 -3.550000000000000E-002    0.000000000000000E+000
 -3.540000000000000E-002    0.000000000000000E+000
 -3.530000000000000E-002    0.000000000000000E+000
 -3.520000000000000E-002    0.000000000000000E+000
 -3.510000000000000E-002    0.000000000000000E+000
 -3.500000000000000E-002    0.000000000000000E+000
 -3.490000000000000E-002    0.000000000000000E+000
 -3.480000000000000E-002    0.000000000000000E+000
 -3.470000000000000E-002    0.000000000000000E+000
 -3.460000000000000E-002    0.000000000000000E+000
 -3.450000000000000E-002    0.000000000000000E+000
 -3.440000000000000E-002    0.000000000000000E+000
 -3.430000000000000E-002    0.000000000000000E+000
 -3.420000000000000E-002    0.000000000000000E+000
 -3.410000000000000E-002    0.000000000000000E+000
 -3.400000000000000E-002    0.000000000000000E+000
 -3.390000000000000E-002    0.000000000000000E+000
 -3.380000000000000E-002    0.000000000000000E+000
 -3.370000000000000E-002    0.000000000000000E+000
 -3.360000000000000E-002    0.000000000000000E+000
 -3.350000000000000E-002    0.000000000000000E+000
 -3.340000000000000E-002    0.000000000000000E+000
 -3.330000000000000E-002    0.000000000000000E+000
 -3.320000000000000E-002    0.000000000000000E+000
 -3.310000000000000E-002    0.000000000000000E+000
 -3.300000000000000E-002    0.000000000000000E+000
 -3.290000000000000E-002    0.000000000000000E+000
 -3.280000000000000E-002    0.000000000000000E+000
 -3.270000000000000E-002    0.000000000000000E+000
 -3.260000000000000E-002    0.000000000000000E+000
 -3.250000000000000E-002    0.000000000000000E+000
 -3.240000000000000E-002    0.000000000000000E+000
 -3.230000000000000E-002    0.000000000000000E+000
 -3.220000000000000E-002    0.000000000000000E+000
 -3.210000000000000E-002    0.000000000000000E+000
 -3.200000000000000E-002    0.000000000000000E+000
 -3.190000000000000E-002    0.000000000000000E+000
 -3.180000000000000E-002    0.000000000000000E+000
 -3.170000000000000E-002    0.000000000000000E+000
 -3.160000000000000E-002    0.000000000000000E+000
 -3.150000000000000E-002    0.000000000000000E+000
 -3.140000000000000E-002    0.000000000000000E+000
 -3.130000000000000E-002   -2.138211768073757E-048
 -3.120000000000000E-002   -1.496748237651630E-047
 -3.110000000000000E-002   -7.197739051017113E-047
 -3.100000000000000E-002   -1.902068927621819E-046
 -3.090000000000000E-002   -3.783423113077364E-046
 -3.080000000000000E-002   -6.192112144507983E-046
 -3.070000000000000E-002   -9.321242456554777E-046
 -3.060000000000000E-002   -1.289217914385369E-045
 -3.050000000000000E-002   -1.567986294852315E-045
 -3.040000000000000E-002   -1.501993819384886E-045
 -3.030000000000000E-002   -9.547579175363944E-046
 -3.020000000000000E-002    7.129399390753334E-046
 -3.010000000000000E-002    3.984160014493341E-045
 -3.000000000000000E-002    8.547477850447555E-045
 -2.990000000000000E-002    1.662513935524780E-044
 -2.980000000000000E-002    2.899521941683612E-044
 -2.970000000000000E-002    4.650856301154149E-044
 -2.960000000000000E-002    6.955273381651695E-044
 -2.950000000000000E-002    9.570199344400987E-044
 -2.940000000000000E-002    1.208709725429488E-043
 -2.930000000000000E-002    1.351866545264667E-043
 -2.920000000000000E-002    1.239511720275217E-043
 -2.910000000000000E-002    6.600309689586240E-044
 -2.900000000000000E-002   -7.288257339906112E-044
 -2.890000000000000E-002   -3.321557404458153E-043
 -2.880000000000000E-002   -7.576732012617376E-043
 -2.870000000000000E-002   -1.396320328367503E-042
 -2.860000000000000E-002   -2.277339380557845E-042
 -2.850000000000000E-002   -3.393156150686414E-042
 -2.840000000000000E-002   -4.664974962336989E-042
 -2.830000000000000E-002   -5.901009386457367E-042
 -2.820000000000000E-002   -6.738574367634749E-042
 -2.810000000000000E-002   -6.593284607197986E-042
 -2.800000000000000E-002   -4.602636629319816E-042
 -2.790000000000000E-002    3.908108682837821E-043
 -2.780000000000000E-002    9.807078823581894E-042
 -2.770000000000000E-002    2.520001395665390E-041
 -2.760000000000000E-002    4.798779877440686E-041
 -2.750000000000000E-002    7.898858613984356E-041
 -2.740000000000000E-002    1.177269997988950E-040
 -2.730000000000000E-002    1.614745587937819E-040
 -2.720000000000000E-002    2.040640891374077E-040
 -2.710000000000000E-002    2.345586890454107E-040
 -2.700000000000000E-002    2.359815148678667E-040
 -2.690000000000000E-002    1.844441106220555E-040
 -2.680000000000000E-002    4.916940298993489E-041
 -2.670000000000000E-002   -2.059169646873727E-040
 -2.660000000000000E-002   -6.182323734316287E-040
 -2.650000000000000E-002   -1.219346589289646E-039
 -2.640000000000000E-002   -2.023787997881350E-039
 -2.630000000000000E-002   -3.013379354949758E-039
 -2.620000000000000E-002   -4.117286800977327E-039
 -2.610000000000000E-002   -5.188971617634810E-039
 -2.600000000000000E-002   -5.982699487023861E-039
 -2.590000000000000E-002   -6.134117234958322E-039
 -2.580000000000000E-002   -5.151587609235728E-039
 -2.570000000000000E-002   -2.427152513935679E-039
 -2.560000000000000E-002    2.722145305844247E-039
 -2.550000000000000E-002    1.097097696177021E-038
 -2.540000000000000E-002    2.284969409297432E-038
 -2.530000000000000E-002    3.854813978809452E-038
 -2.520000000000000E-002    5.765873139003638E-038
 -2.510000000000000E-002    7.886924667298593E-038
 -2.500000000000000E-002    9.963122779901671E-038
 -2.490000000000000E-002    1.158498130000630E-037
 -2.480000000000000E-002    1.216636495646469E-037
 -2.470000000000000E-002    1.094073333053475E-037
 -2.460000000000000E-002    6.986948336035392E-038
 -2.450000000000000E-002   -7.027708419555712E-039
 -2.440000000000000E-002   -1.310036803671213E-037
 -2.430000000000000E-002   -3.095496443610108E-037
 -2.420000000000000E-002   -5.453672124858051E-037
 -2.410000000000000E-002   -8.331582983115206E-037
 -2.400000000000000E-002   -1.155937811486040E-036
 -2.390000000000000E-002   -1.481208921262280E-036
 -2.380000000000000E-002   -1.757539634561081E-036
 -2.370000000000000E-002   -1.912297208229688E-036
 -2.360000000000000E-002   -1.851504335577620E-036
 -2.350000000000000E-002   -1.462946317889835E-036
 -2.340000000000000E-002   -6.237329436842150E-037
 -2.330000000000000E-002    7.865481327530891E-037
 -2.320000000000000E-002    2.866219626287201E-036
 -2.310000000000000E-002    5.665102501182210E-036
 -2.300000000000000E-002    9.151790857732344E-036
 -2.290000000000000E-002    1.317624783053173E-035
 -2.280000000000000E-002    1.743083163533235E-035
 -2.270000000000000E-002    2.141457600891680E-035
 -2.260000000000000E-002    2.440741015468991E-035
 -2.250000000000000E-002    2.546279521360386E-035
 -2.240000000000000E-002    2.342873498827513E-035
 -2.230000000000000E-002    1.700787982739463E-035
 -2.220000000000000E-002    4.867148301120435E-036
 -2.210000000000000E-002   -1.419464426202326E-035
 -2.200000000000000E-002   -4.101652210465381E-035
 -2.190000000000000E-002   -7.578429990510564E-035
 -2.180000000000000E-002   -1.176895780561688E-034
 -2.170000000000000E-002   -1.645614936721265E-034
 -2.160000000000000E-002   -2.125081342691481E-034
 -2.150000000000000E-002   -2.556202215977704E-034
 -2.140000000000000E-002   -2.858057775119572E-034
 -2.130000000000000E-002   -2.928382573247401E-034
 -2.120000000000000E-002   -2.647100956046130E-034
 -2.110000000000000E-002   -1.883847993281296E-034
 -2.100000000000000E-002   -5.103018285640271E-035
 -2.090000000000000E-002    1.582115762264787E-034
 -2.080000000000000E-002    4.459065416764290E-034
 -2.070000000000000E-002    8.115223091786216E-034
 -2.060000000000000E-002    1.244278947435282E-033
 -2.050000000000000E-002    1.719915611270594E-033
 -2.040000000000000E-002    2.197754818574428E-033
 -2.030000000000000E-002    2.618574240884887E-033
 -2.020000000000000E-002    2.903912046385419E-033
 -2.010000000000000E-002    2.957518292746547E-033
 -2.000000000000000E-002    2.669688808354825E-033
 -1.990000000000000E-002    1.925166071097711E-033
 -1.980000000000000E-002    6.151197177156125E-034
 -1.970000000000000E-002   -1.346581249136272E-033
 -1.960000000000000E-002   -4.003053574784140E-033
 -1.950000000000000E-002   -7.330896700730243E-033
 -1.940000000000000E-002   -1.121511471943562E-032
 -1.930000000000000E-002   -1.542492040613296E-032
 -1.920000000000000E-002   -1.959376903307476E-032
 -1.910000000000000E-002   -2.320777522247837E-032
 -1.900000000000000E-002   -2.560729850081643E-032
 -1.890000000000000E-002   -2.600674846226224E-032
 -1.880000000000000E-002   -2.353741517939864E-032
 -1.870000000000000E-002   -1.731723019018384E-032
 -1.860000000000000E-002   -6.549604596174747E-033
 -1.850000000000000E-002    9.349175887917259E-033
 -1.840000000000000E-002    3.059808567776419E-032
 -1.830000000000000E-002    5.688360171140519E-032
 -1.820000000000000E-002    8.718970514563021E-032
 -1.810000000000000E-002    1.196446271307556E-031
 -1.800000000000000E-002    1.514084381656140E-031
 -1.790000000000000E-002    1.786297123449747E-031
 -1.780000000000000E-002    1.965017742208106E-031
 -1.770000000000000E-002    1.994487597829691E-031
 -1.760000000000000E-002    1.814677402567166E-031
 -1.750000000000000E-002    1.366448426890728E-031
 -1.740000000000000E-002    5.984990159299174E-032
 -1.730000000000000E-002   -5.240424466901292E-032
 -1.720000000000000E-002   -2.009753063139031E-031
 -1.710000000000000E-002   -3.830427527073955E-031
 -1.700000000000000E-002   -5.910912797289705E-031
 -1.690000000000000E-002   -8.120504678618557E-031
 -1.680000000000000E-002   -1.026740472414718E-030
 -1.670000000000000E-002   -1.209791519063439E-030
 -1.660000000000000E-002   -1.330210617805384E-030
 -1.650000000000000E-002   -1.352758359247667E-030
 -1.640000000000000E-002   -1.240263947549047E-030
 -1.630000000000000E-002   -9.569507659025658E-031
 -1.620000000000000E-002   -4.727571524549454E-031
 -1.610000000000000E-002    2.314743202049490E-031
 -1.600000000000000E-002    1.158202429424316E-030
 -1.590000000000000E-002    2.287205761050634E-030
 -1.580000000000000E-002    3.569990474250614E-030
 -1.570000000000000E-002    4.925315825946143E-030
 -1.560000000000000E-002    6.236688386447779E-030
 -1.550000000000000E-002    7.352747674970488E-030
 -1.540000000000000E-002    8.091464456182984E-030
 -1.530000000000000E-002    8.248971759076500E-030
 -1.520000000000000E-002    7.613624044124584E-030
 -1.510000000000000E-002    5.985527135350345E-030
 -1.500000000000000E-002    3.201280519894661E-030
 -1.490000000000000E-002   -8.369686421667503E-031
 -1.480000000000000E-002   -6.129787763326712E-030
 -1.470000000000000E-002   -1.254849723504079E-029
 -1.460000000000000E-002   -1.980625885302847E-029
 -1.450000000000000E-002   -2.743621139860880E-029
 -1.440000000000000E-002   -3.478122359938306E-029
 -1.430000000000000E-002   -4.100005872944916E-029
 -1.420000000000000E-002   -4.509461146370789E-029
 -1.410000000000000E-002   -4.596210305060833E-029
 -1.400000000000000E-002   -4.247484544189144E-029
 -1.390000000000000E-002   -3.358806391443787E-029
 -1.380000000000000E-002   -1.847357870938503E-029
 -1.370000000000000E-002    3.326288151284219E-030
 -1.360000000000000E-002    3.173403999826304E-029
 -1.350000000000000E-002    6.597515723450147E-029
 -1.340000000000000E-002    1.044366289417326E-028
 -1.330000000000000E-002    1.445668190495013E-028
 -1.320000000000000E-002    1.828399987936290E-028
 -1.310000000000000E-002    2.148092762183173E-028
 -1.300000000000000E-002    2.352704057076777E-028
 -1.290000000000000E-002    2.385540395042369E-028
 -1.280000000000000E-002    2.189567390445346E-028
 -1.270000000000000E-002    1.713096590865912E-028
 -1.260000000000000E-002    9.166976232246633E-029
 -1.250000000000000E-002   -2.189916960429962E-029
 -1.240000000000000E-002   -1.685074078715343E-028
 -1.230000000000000E-002   -3.436539107166832E-028
 -1.220000000000000E-002   -5.385646776448872E-028
 -1.210000000000000E-002   -7.397608279187820E-028
 -1.200000000000000E-002   -9.289701649215157E-028
 -1.190000000000000E-002   -1.083497118001445E-027
 -1.180000000000000E-002   -1.177154195076313E-027
 -1.170000000000000E-002   -1.181831416093712E-027
 -1.160000000000000E-002   -1.069740539368578E-027
 -1.150000000000000E-002   -8.163122151833126E-028
 -1.140000000000000E-002   -4.036512439110961E-028
 -1.130000000000000E-002    1.756289753024031E-028
 -1.120000000000000E-002    9.144651989249662E-028
 -1.110000000000000E-002    1.787662572229765E-027
 -1.100000000000000E-002    2.748921256937439E-027
 -1.090000000000000E-002    3.729084246026008E-027
 -1.080000000000000E-002    4.636149657928980E-027
 -1.070000000000000E-002    5.357576566455317E-027
 -1.060000000000000E-002    5.765336999519772E-027
 -1.050000000000000E-002    5.724028032082587E-027
 -1.040000000000000E-002    5.102142889617768E-027
 -1.030000000000000E-002    3.786306959663711E-027
 -1.020000000000000E-002    1.697941246100672E-027
 -1.010000000000000E-002   -1.188599260028193E-027
 -1.000000000000000E-002   -4.827779192674917E-027
 -9.899999999999999E-003   -9.086308672133631E-027
 -9.800000000000000E-003   -1.373037646263925E-026
 -9.699999999999999E-003   -1.841905137919954E-026
 -9.599999999999999E-003   -2.270631080987235E-026
 -9.500000000000000E-003   -2.605395586481390E-026
 -9.399999999999999E-003   -2.785731405718430E-026
 -9.299999999999999E-003   -2.748484110092953E-026
 -9.200000000000000E-003   -2.433174027745668E-026
 -9.099999999999999E-003   -1.788636017217137E-026
 -8.999999999999999E-003   -7.806513531385878E-027
 -8.900000000000000E-003    5.998846650157824E-027
 -8.799999999999999E-003    2.328901818752043E-026
 -8.699999999999999E-003    4.342003782933265E-026
 -8.600000000000000E-003    6.529167653037722E-026
 -8.499999999999999E-003    8.732318390736727E-026
 -8.399999999999999E-003    1.074679728188104E-025
 -8.300000000000000E-003    1.232766215596795E-025
 -8.199999999999999E-003    1.320154482762150E-025
 -8.100000000000000E-003    1.308446071356048E-025
 -8.000000000000000E-003    1.170551393643680E-025
 -7.899999999999999E-003    8.835871346088871E-026
 -7.800000000000000E-003    4.321722564258392E-026
 -7.699999999999999E-003   -1.880789071741295E-026
 -7.599999999999999E-003   -9.671349319932131E-026
 -7.499999999999999E-003   -1.877535068125883E-025
 -7.399999999999999E-003   -2.872171683124500E-025
 -7.299999999999999E-003   -3.883279935225478E-025
 -7.199999999999999E-003   -4.823048610154710E-025
 -7.100000000000000E-003   -5.586217052897908E-025
 -6.999999999999999E-003   -6.054948047981044E-025
 -6.899999999999999E-003   -6.106123566686799E-025
 -6.800000000000000E-003   -5.621041252637127E-025
 -6.699999999999999E-003   -4.497255660679382E-025
 -6.599999999999999E-003   -2.662062746414582E-025
 -6.499999999999999E-003   -8.684205482199607E-027
 -6.399999999999999E-003    3.198793769235581E-025
 -6.299999999999999E-003    7.094357029744248E-025
 -6.199999999999999E-003    1.141883689412329E-024
 -6.100000000000000E-003    1.590567963367796E-024
 -5.999999999999999E-003    2.020400002771507E-024
 -5.899999999999999E-003    2.388749229948594E-024
 -5.800000000000000E-003    2.647221713996625E-024
 -5.699999999999999E-003    2.744395712574779E-024
 -5.599999999999999E-003    2.629511790004084E-024
 -5.499999999999999E-003    2.257045332470581E-024
 -5.399999999999999E-003    1.591975927198185E-024
 -5.299999999999999E-003    6.154825718445813E-025
 -5.199999999999999E-003   -6.693294723446637E-025
 -5.099999999999999E-003   -2.232146395737221E-024
 -4.999999999999999E-003   -4.011176946000836E-024
 -4.899999999999999E-003   -5.910512427432567E-024
 -4.799999999999999E-003   -7.799740550326708E-024
 -4.699999999999999E-003   -9.516403710991503E-024
 -4.599999999999999E-003   -1.087178564554711E-023
 -4.499999999999999E-003   -1.166035765374721E-023
 -4.399999999999999E-003   -1.167296618230798E-023
 -4.299999999999999E-003   -1.071356386373526E-023
 -4.199999999999999E-003   -8.618923398837723E-024
 -4.099999999999999E-003   -5.280396589403841E-024
 -3.999999999999999E-003   -6.663685897648706E-025
 -3.899999999999999E-003    5.156296060462582E-024
 -3.799999999999999E-003    1.200389048548241E-023
 -3.699999999999999E-003    1.956284806061120E-023
 -3.599999999999999E-003    2.738442535451286E-023
 -3.499999999999999E-003    3.488939873800325E-023
 -3.399999999999999E-003    4.138471675842036E-023
 -3.299999999999999E-003    4.609355424504109E-023
 -3.199999999999999E-003    4.819945359540935E-023
 -3.099999999999999E-003    4.690413477404501E-023
 -2.999999999999999E-003    4.149737318027762E-023
 -2.899999999999999E-003    3.143599219846126E-023
 -2.799999999999999E-003    1.642753437365412E-023
 -2.699999999999999E-003   -3.487262937157071E-024
 -2.599999999999999E-003   -2.786022667251614E-023
 -2.499999999999999E-003   -5.577772800472420E-023
 -2.399999999999999E-003   -8.582741225209672E-023
 -2.299999999999999E-003   -1.160979724750079E-022
 -2.199999999999999E-003   -1.442194945002238E-022
 -2.099999999999999E-003   -1.674501399363781E-022
 -1.999999999999999E-003   -1.828126282569611E-022
 -1.899999999999999E-003   -1.872803108389819E-022
 -1.799999999999999E-003   -1.780089150988844E-022
 -1.699999999999999E-003   -1.526052040671037E-022
 -1.599999999999999E-003   -1.094188899303363E-022
 -1.499999999999999E-003   -4.783944689858021E-023
 -1.399999999999999E-003    3.142518245301263E-023
 -1.299999999999999E-003    1.261140272725291E-022
 -1.199999999999999E-003    2.322514248978370E-022
 -1.099999999999999E-003    3.440865098369093E-022
 -9.999999999999989E-004    4.541605947819481E-022
 -8.999999999999990E-004    5.535240865879754E-022
 -7.999999999999990E-004    6.321178207386374E-022
 -6.999999999999989E-004    6.793229042781630E-022
 -5.999999999999990E-004    6.846714429588289E-022
 -4.999999999999989E-004    6.386953606250225E-022
 -3.999999999999989E-004    5.338755729098841E-022
 -2.999999999999989E-004    3.656376705743700E-022
 -1.999999999999989E-004    1.333259197138621E-022
 -9.999999999999892E-005   -1.589256938014036E-022
  1.084202172485504E-018   -5.015133883835186E-022
  1.000000000000011E-004   -8.789676239330062E-022
  2.000000000000011E-004   -1.269928804397460E-021
  3.000000000000011E-004   -1.647572286363725E-021
  4.000000000000011E-004   -1.980540717793068E-021
  5.000000000000011E-004   -2.234413154818519E-021
  6.000000000000011E-004   -2.373705781164499E-021
  7.000000000000011E-004   -2.364356234874885E-021
  8.000000000000011E-004   -2.176596727302227E-021
  9.000000000000012E-004   -1.788073769141978E-021
  1.000000000000001E-003   -1.187024686376548E-021
  1.100000000000001E-003   -3.752781863558879E-022
  1.200000000000001E-003    6.291815727674868E-022
  1.300000000000001E-003    1.790368433594497E-021
  1.400000000000001E-003    3.053446086318592E-021
  1.500000000000001E-003    4.345133249316042E-021
  1.600000000000001E-003    5.575576517434739E-021
  1.700000000000001E-003    6.641828734480693E-021
  1.800000000000001E-003    7.432981997149639E-021
  1.900000000000001E-003    7.836880355305090E-021
  2.000000000000001E-003    7.748215536055300E-021
  2.100000000000001E-003    7.077651819466359E-021
  2.200000000000001E-003    5.761499236624135E-021
  2.300000000000001E-003    3.771309936029067E-021
  2.400000000000001E-003    1.122667926764393E-021
  2.500000000000001E-003   -2.117630349950873E-021
  2.600000000000001E-003   -5.826850058833403E-021
  2.700000000000001E-003   -9.824838733373739E-021
  2.800000000000001E-003   -1.387651700692592E-020
  2.900000000000001E-003   -1.769887809811578E-020
  3.000000000000001E-003   -2.097280142866040E-020
  3.100000000000001E-003   -2.335970335523772E-020
  3.200000000000001E-003   -2.452265069713453E-020
  3.300000000000001E-003   -2.415121241297120E-020
  3.400000000000001E-003   -2.198886503338322E-020
  3.500000000000001E-003   -1.786143009045171E-020
  3.600000000000001E-003   -1.170460071358246E-020
  3.700000000000001E-003   -3.588398288601554E-021
  3.800000000000001E-003    6.263788220081431E-021
  3.900000000000001E-003    1.746393026331140E-020
  4.000000000000001E-003    2.945805706916447E-020
  4.100000000000001E-003    4.153675456652615E-020
  4.200000000000001E-003    5.285874924007688E-020
  4.300000000000001E-003    6.248817063459251E-020
  4.400000000000001E-003    6.944511159965873E-020
  4.500000000000001E-003    7.276813066874583E-020
  4.600000000000002E-003    7.158615581188544E-020
  4.700000000000001E-003    6.519628097707776E-020
  4.800000000000001E-003    5.314271983270850E-020
  4.900000000000002E-003    3.529149322610291E-020
  5.000000000000001E-003    1.189465416274830E-020
  5.100000000000001E-003   -1.636219929986211E-020
  5.200000000000001E-003   -4.833546378133909E-020
  5.300000000000002E-003   -8.242761057456320E-020
  5.400000000000001E-003   -1.166242459100849E-019
  5.500000000000001E-003   -1.485669322320991E-019
  5.600000000000002E-003   -1.756623543830251E-019
  5.700000000000001E-003   -1.952259928650249E-019
  5.800000000000001E-003   -2.046555937283653E-019
  5.900000000000002E-003   -2.016269550802258E-019
  6.000000000000001E-003   -1.843015823197755E-019
  6.100000000000001E-003   -1.515335095363173E-019
  6.200000000000002E-003   -1.030603664572491E-019
  6.300000000000002E-003   -3.966283175697323E-020
  6.400000000000001E-003    3.672385872272764E-020
  6.500000000000001E-003    1.229615027679352E-019
  6.600000000000002E-003    2.147369882869409E-019
  6.700000000000001E-003    3.066765892844386E-019
  6.800000000000001E-003    3.925516226264749E-019
  6.900000000000002E-003    4.655752196063053E-019
  7.000000000000001E-003    5.187830367532284E-019
  7.100000000000001E-003    5.454845285992001E-019
  7.200000000000002E-003    5.397633439363926E-019
  7.300000000000002E-003    4.970000375230697E-019
  7.400000000000001E-003    4.143839663842025E-019
  7.500000000000001E-003    2.913770018212088E-019
  7.600000000000002E-003    1.300906480803672E-019
  7.700000000000001E-003   -6.446281034930337E-020
  7.800000000000001E-003   -2.842803135475330E-019
  7.900000000000001E-003   -5.184691128765260E-019
  8.000000000000002E-003   -7.535588642588880E-019
  8.100000000000001E-003   -9.740349139046150E-019
  8.200000000000001E-003   -1.163086290944878E-018
  8.300000000000002E-003   -1.303549418723287E-018
  8.400000000000001E-003   -1.379009907444605E-018
  8.500000000000002E-003   -1.375010436347671E-018
  8.600000000000002E-003   -1.280297152029141E-018
  8.700000000000001E-003   -1.088026158227167E-018
  8.800000000000002E-003   -7.968419679809307E-019
  8.900000000000002E-003   -4.117386056025147E-019
  9.000000000000001E-003    5.538455637366224E-020
  9.100000000000002E-003    5.855530064058694E-019
  9.200000000000002E-003    1.152994347351077E-018
  9.300000000000001E-003    1.725907278554719E-018
  9.400000000000002E-003    2.267734924314452E-018
  9.500000000000001E-003    2.738926296221375E-018
  9.600000000000001E-003    3.099132985121714E-018
  9.700000000000002E-003    3.309752285297449E-018
  9.800000000000001E-003    3.336693955637623E-018
  9.900000000000001E-003    3.153216311292493E-018
  1.000000000000000E-002    2.742652258406626E-018
  1.010000000000000E-002    2.100831124575527E-018
  1.020000000000000E-002    1.237997778697560E-018
  1.030000000000000E-002    1.800359533430143E-019
  1.040000000000000E-002   -1.031173567816140E-018
  1.050000000000000E-002   -2.338390147701699E-018
  1.060000000000000E-002   -3.670735916937716E-018
  1.070000000000000E-002   -4.946522913228877E-018
  1.080000000000000E-002   -6.077143447858438E-018
  1.090000000000000E-002   -6.971895430456735E-018
  1.100000000000000E-002   -7.543552683511142E-018
  1.110000000000000E-002   -7.714403899589079E-018
  1.120000000000000E-002   -7.422426610173351E-018
  1.130000000000000E-002   -6.627214065163637E-018
  1.140000000000000E-002   -5.315240354946949E-018
  1.150000000000000E-002   -3.504043172434376E-018
  1.160000000000000E-002   -1.244923574411218E-018
  1.170000000000000E-002    1.376185439449394E-018
  1.180000000000000E-002    4.239960819608109E-018
  1.190000000000000E-002    7.197211023910642E-018
  1.200000000000000E-002    1.007470949755185E-017
  1.210000000000000E-002    1.268325915013030E-017
  1.220000000000000E-002    1.482771145270396E-017
  1.230000000000000E-002    1.631854273625544E-017
  1.240000000000000E-002    1.698442625586140E-017
  1.250000000000000E-002    1.668511461344564E-017
  1.260000000000000E-002    1.532385429869727E-017
  1.270000000000000E-002    1.285849424765667E-017
  1.280000000000000E-002    9.310438695465849E-018
  1.290000000000000E-002    4.770635502031217E-018
  1.300000000000000E-002   -5.981003131594475E-019
  1.310000000000000E-002   -6.562988413129002E-018
  1.320000000000000E-002   -1.282775947378721E-017
  1.330000000000000E-002   -1.904380047694486E-017
  1.340000000000000E-002   -2.482579432817632E-017
  1.350000000000000E-002   -2.977134915387011E-017
  1.360000000000000E-002   -3.348386180551913E-017
  1.370000000000000E-002   -3.559753156785562E-017
  1.380000000000000E-002   -3.580318814834539E-017
  1.390000000000000E-002   -3.387347320630408E-017
  1.400000000000000E-002   -2.968570537380545E-017
  1.410000000000000E-002   -2.324080900689955E-017
  1.420000000000000E-002   -1.467670397570897E-017
  1.430000000000000E-002   -4.274763410781671E-018
  1.440000000000000E-002    7.541774778521325E-018
  1.450000000000000E-002    2.021820853997276E-017
  1.460000000000000E-002    3.308786797080606E-017
  1.470000000000000E-002    4.540045135976468E-017
  1.480000000000000E-002    5.635841102773310E-017
  1.490000000000000E-002    6.516001262980828E-017
  1.500000000000000E-002    7.104714539031048E-017
  1.510000000000000E-002    7.335548891931405E-017
  1.520000000000000E-002    7.156424320440578E-017
  1.530000000000000E-002    6.534239759683557E-017
  1.540000000000000E-002    5.458838224667471E-017
  1.550000000000000E-002    3.946002926469752E-017
  1.560000000000000E-002    2.039212368774847E-017
  1.570000000000000E-002   -1.900838922221400E-018
  1.580000000000000E-002   -2.643833797350656E-017
  1.590000000000000E-002   -5.200474775792188E-017
  1.600000000000000E-002   -7.719747813539565E-017
  1.610000000000000E-002   -1.004911380498800E-016
  1.620000000000000E-002   -1.203155329511202E-016
  1.630000000000000E-002   -1.351442147537326E-016
  1.640000000000000E-002   -1.435894639789565E-016
  1.650000000000000E-002   -1.444985663680949E-016
  1.660000000000000E-002   -1.370458812199635E-016
  1.670000000000000E-002   -1.208147897036178E-016
  1.680000000000000E-002   -9.586365573893565E-017
  1.690000000000000E-002   -6.277021147813519E-017
  1.700000000000000E-002   -2.264971002556578E-017
  1.710000000000000E-002    2.285704410914728E-017
  1.720000000000000E-002    7.162780481846944E-017
  1.730000000000000E-002    1.211360328720585E-016
  1.740000000000000E-002    1.685594913303556E-016
  1.750000000000000E-002    2.109171797456760E-016
  1.760000000000000E-002    2.452291666736259E-016
  1.770000000000000E-002    2.686921958942458E-016
  1.780000000000000E-002    2.788621353980979E-016
  1.790000000000000E-002    2.738331948134187E-016
  1.800000000000000E-002    2.524028973813320E-016
  1.810000000000000E-002    2.142118007231875E-016
  1.820000000000000E-002    1.598468412936562E-016
  1.830000000000000E-002    9.089924087306855E-017
  1.840000000000000E-002    9.968460558966381E-018
  1.850000000000000E-002   -7.939270634660071E-017
  1.860000000000000E-002   -1.727947733446745E-016
  1.870000000000000E-002   -2.651886858182377E-016