 -4.000000000000000E-002    0.000000000000000E+000
 -3.990000000000000E-002    0.000000000000000E+000
 -3.980000000000000E-002    0.000000000000000E+000
 -3.970000000000000E-002    0.000000000000000E+000
 -3.960000000000000E-002    0.000000000000000E+000
 -3.950000000000000E-002    0.000000000000000E+000
 -3.940000000000000E-002    0.000000000000000E+000
 -3.930000000000000E-002    0.000000000000000E+000
 -3.920000000000000E-002   -5.515376498947540E-029
 -3.910000000000000E-002   -8.749431718366755E-028
 -3.900000000000000E-002   -7.441272409144654E-027
 -3.890000000000000E-002   -4.499399180525596E-026
 -3.880000000000000E-002   -2.163218050258129E-025
 -3.870000000000000E-002   -8.768575379096976E-025
 -3.860000000000000E-002   -3.103788099836233E-024
 -3.850000000000000E-002   -9.816097796704104E-024
 -3.840000000000000E-002   -2.818163399320433E-023
 -3.830000000000000E-002   -7.429723916858843E-023
 -3.820000000000000E-002   -1.814247159420100E-022
 -3.810000000000000E-002   -4.130261127854558E-022
 -3.800000000000000E-002   -8.809840276322582E-022
 -3.790000000000000E-002   -1.767039048840502E-021
 -3.780000000000000E-002   -3.340875826940996E-021
 -3.770000000000000E-002   -5.960892743552213E-021
 -3.760000000000000E-002   -1.003357948590597E-020
 -3.750000000000000E-002   -1.589588544871412E-020
 -3.740000000000000E-002   -2.357514078613842E-020
 -3.730000000000000E-002   -3.237826419736209E-020
 -3.720000000000000E-002   -4.027374803253169E-020
 -3.710000000000000E-002   -4.306495154726015E-020
 -3.700000000000000E-002   -3.342009550225221E-020
 -3.690000000000000E-002    7.279819310208671E-023
 -3.680000000000000E-002    7.352084506248801E-020
 -3.670000000000000E-002    2.075508273030839E-019
 -3.660000000000000E-002    4.257383358478569E-019
 -3.650000000000000E-002    7.509504983606696E-019
 -3.640000000000000E-002    1.198943905961770E-018
 -3.630000000000000E-002    1.768780275808771E-018
 -3.620000000000000E-002    2.430092084783458E-018
 -3.610000000000000E-002    3.107985916682583E-018
 -3.600000000000000E-002    3.667400246471277E-018
 -3.590000000000000E-002    3.899949567805069E-018
 -3.580000000000000E-002    3.517519961450507E-018
 -3.570000000000000E-002    2.157859266304879E-018
 -3.560000000000000E-002   -5.922054914685342E-019
 -3.550000000000000E-002   -5.150898566586494E-018
 -3.540000000000000E-002   -1.186987612559921E-017
 -3.530000000000000E-002   -2.093724906742654E-017
 -3.520000000000000E-002   -3.226073409568839E-017
 -3.510000000000000E-002   -4.534273728516086E-017
 -3.500000000000000E-002   -5.916595205996371E-017
 -3.490000000000000E-002   -7.211439335299701E-017
 -3.480000000000000E-002   -8.195863966831748E-017
 -3.470000000000000E-002   -8.593432628405506E-017
 -3.460000000000000E-002   -8.093749076351844E-017
 -3.450000000000000E-002   -6.384828266332396E-017
 -3.440000000000000E-002   -3.197512410379390E-017
 -3.430000000000000E-002    1.641351708883977E-017
 -3.420000000000000E-002    8.153205134556366E-017
 -3.410000000000000E-002    1.615852968623696E-016
 -3.400000000000000E-002    2.524527234298655E-016
 -3.390000000000000E-002    3.476693328895943E-016
 -3.380000000000000E-002    4.388116568183120E-016
 -3.370000000000000E-002    5.163592528865687E-016
 -3.360000000000000E-002    5.710360419256583E-016
 -3.350000000000000E-002    5.955434830887545E-016
 -3.340000000000000E-002    5.864845457358882E-016
 -3.330000000000000E-002    5.461607965789704E-016
 -3.320000000000000E-002    4.838212279504372E-016
 -3.310000000000000E-002    4.158797407192294E-016
 -3.300000000000000E-002    3.646198841044005E-016
 -3.290000000000000E-002    3.549991297717422E-016
 -3.280000000000000E-002    4.093683156917164E-016
 -3.270000000000000E-002    5.402337949603873E-016
 -3.260000000000000E-002    7.415990846653530E-016
 -3.250000000000000E-002    9.799011855668350E-016
 -3.240000000000000E-002    1.186023491972862E-015
 -3.230000000000000E-002    1.250280237998014E-015
 -3.220000000000000E-002    1.022487580240143E-015
 -3.210000000000000E-002    3.192129788763634E-016
 -3.200000000000000E-002   -1.060087838765335E-015
 -3.190000000000000E-002   -3.307119965853589E-015
 -3.180000000000000E-002   -6.569245584006619E-015
 -3.170000000000000E-002   -1.090625351098666E-014
 -3.160000000000000E-002   -1.624300062938115E-014
 -3.150000000000000E-002   -2.232337209487596E-014
 -3.140000000000000E-002   -2.867260299132956E-014
 -3.130000000000000E-002   -3.457610481430098E-014
 -3.120000000000000E-002   -3.908324270391714E-014
 -3.110000000000000E-002   -4.104364061801157E-014
 -3.100000000000000E-002   -3.918154432733719E-014
 -3.090000000000000E-002   -3.221033011315324E-014
 -3.080000000000000E-002   -1.898459657495890E-014
 -3.070000000000000E-002    1.318247390144942E-015
 -3.060000000000000E-002    2.900090870026347E-014
 -3.050000000000000E-002    6.365325252640213E-014
 -3.040000000000000E-002    1.039875967857273E-013
 -3.030000000000000E-002    1.477288586056100E-013
 -3.020000000000000E-002    1.915861121422997E-013
 -3.010000000000000E-002    2.313285265799395E-013
 -3.000000000000000E-002    2.619815459070939E-013
 -2.990000000000000E-002    2.781492030588313E-013
 -2.980000000000000E-002    2.744547064771917E-013
 -2.970000000000000E-002    2.460767812058511E-013
 -2.960000000000000E-002    1.893444035948223E-013
 -2.950000000000000E-002    1.023384062498436E-013
 -2.940000000000000E-002   -1.456100257443160E-014
 -2.930000000000000E-002   -1.582468935084677E-013
 -2.920000000000000E-002   -3.226425070189097E-013
 -2.910000000000000E-002   -4.986972948030354E-013
 -2.900000000000000E-002   -6.746599372626529E-013
 -2.890000000000000E-002   -8.366426742876742E-013
 -2.880000000000000E-002   -9.694638890748709E-013
 -2.870000000000000E-002   -1.057724873129061E-012
 -2.860000000000000E-002   -1.087048531941532E-012
 -2.850000000000000E-002   -1.045382782383334E-012
 -2.840000000000000E-002   -9.242570461774488E-013
 -2.830000000000000E-002   -7.198720991552503E-013
 -2.820000000000000E-002   -4.339135092697810E-013
 -2.810000000000000E-002   -7.399625011427857E-014
 -2.800000000000000E-002    3.463203479959895E-013
 -2.790000000000000E-002    8.079691017301090E-013
 -2.780000000000000E-002    1.287241887905276E-012
 -2.770000000000000E-002    1.757023677256151E-012
 -2.760000000000000E-002    2.188294247621574E-012
 -2.750000000000000E-002    2.551774948450169E-012
 -2.740000000000000E-002    2.819586740426337E-012
 -2.730000000000000E-002    2.966793722556029E-012
 -2.720000000000000E-002    2.972731608272005E-012
 -2.710000000000000E-002    2.822052459175885E-012
 -2.700000000000000E-002    2.505470106404529E-012
 -2.690000000000000E-002    2.020229602138070E-012
 -2.680000000000000E-002    1.370366444803579E-012
 -2.670000000000000E-002    5.668496740633339E-013
 -2.660000000000000E-002   -3.722978090209628E-013
 -2.650000000000000E-002   -1.421824519672381E-012
 -2.640000000000000E-002   -2.548986696734159E-012
 -2.630000000000000E-002   -3.713225913115733E-012
 -2.620000000000000E-002   -4.865895724072696E-012
 -2.610000000000000E-002   -5.950215548308390E-012
 -2.600000000000000E-002   -6.901698337823194E-012
 -2.590000000000000E-002   -7.649328417071548E-012
 -2.580000000000000E-002   -8.117766277775050E-012
 -2.570000000000000E-002   -8.230793435864021E-012
 -2.560000000000000E-002   -7.916110016186920E-012
 -2.550000000000000E-002   -7.111439257786445E-012
 -2.540000000000000E-002   -5.771696390023785E-012
 -2.530000000000000E-002   -3.876766621449419E-012
 -2.520000000000000E-002   -1.439233553438985E-012
 -2.510000000000000E-002    1.488774504100919E-012
 -2.500000000000000E-002    4.810558530954236E-012
 -2.490000000000000E-002    8.382600986123679E-012
 -2.480000000000000E-002    1.201595443165981E-011
 -2.470000000000000E-002    1.548192557147218E-011
 -2.460000000000000E-002    1.852238112217784E-011
 -2.450000000000000E-002    2.086459245670845E-011
 -2.440000000000000E-002    2.224005580745265E-011
 -2.430000000000000E-002    2.240623598328577E-011
 -2.420000000000000E-002    2.116972336119751E-011
 -2.410000000000000E-002    1.840892554779261E-011
 -2.400000000000000E-002    1.409418651050515E-011
 -2.390000000000000E-002    8.303205297470296E-012
 -2.380000000000000E-002    1.229774459973592E-012
 -2.370000000000000E-002   -6.815764169652296E-012
 -2.360000000000000E-002   -1.541534330480842E-011
 -2.350000000000000E-002   -2.406155575952017E-011
 -2.340000000000000E-002   -3.218505460254280E-011
 -2.330000000000000E-002   -3.918954440638923E-011
 -2.320000000000000E-002   -4.449218746153669E-011
 -2.310000000000000E-002   -4.756657948143171E-011
 -2.300000000000000E-002   -4.798502621536627E-011
 -2.290000000000000E-002   -4.545671880954232E-011
 -2.280000000000000E-002   -3.985859893766764E-011
 -2.270000000000000E-002   -3.125606179589351E-011
 -2.260000000000000E-002   -1.991150163247465E-011
 -2.250000000000000E-002   -6.279568931436521E-012
 -2.240000000000000E-002    9.010901219442153E-012
 -2.230000000000000E-002    2.518727997580171E-011
 -2.220000000000000E-002    4.137379651056523E-011
 -2.210000000000000E-002    5.663964131063650E-011
 -2.200000000000000E-002    7.005114839592260E-011
 -2.190000000000000E-002    8.072447348274450E-011
 -2.180000000000000E-002    8.787531524039440E-011
 -2.170000000000000E-002    9.086263382762840E-011
 -2.160000000000000E-002    8.922407379350593E-011
 -2.150000000000000E-002    8.270166982743808E-011
 -2.140000000000000E-002    7.125722572372701E-011
 -2.130000000000000E-002    5.507784038418103E-011
 -2.120000000000000E-002    3.457259364486968E-011
 -2.110000000000000E-002    1.036191059555483E-011
 -2.100000000000000E-002   -1.673864063454410E-011
 -2.090000000000000E-002   -4.573870298646667E-011
 -2.080000000000000E-002   -7.549647356590980E-011
 -2.070000000000000E-002   -1.047447646142256E-010
 -2.060000000000000E-002   -1.321200636644126E-010
 -2.050000000000000E-002   -1.561957689921218E-010
 -2.040000000000000E-002   -1.755211936711309E-010
 -2.030000000000000E-002   -1.886681363938588E-010
 -2.020000000000000E-002   -1.942867070361047E-010
 -2.010000000000000E-002   -1.911712450435874E-010
 -2.000000000000000E-002   -1.783360845462992E-010
 -1.990000000000000E-002   -1.550992907077626E-010
 -1.980000000000000E-002   -1.211707363623537E-010
 -1.970000000000000E-002   -7.673893774186276E-011
 -1.960000000000000E-002   -2.254932885296236E-011
 -1.950000000000000E-002    4.003443535219033E-011
 -1.940000000000000E-002    1.089955687275557E-010
 -1.930000000000000E-002    1.816642707440772E-010
 -1.920000000000000E-002    2.547607766775642E-010
 -1.910000000000000E-002    3.244867886078628E-010
 -1.900000000000000E-002    3.866674921128599E-010
 -1.890000000000000E-002    4.369427899727862E-010
 -1.880000000000000E-002    4.710014503536450E-010
 -1.870000000000000E-002    4.848481164300096E-010
 -1.860000000000000E-002    4.750883750306070E-010
 -1.850000000000000E-002    4.392140011865994E-010
 -1.840000000000000E-002    3.758681717241986E-010
 -1.830000000000000E-002    2.850697366518692E-010
 -1.820000000000000E-002    1.683765154021628E-010
 -1.810000000000000E-002    2.896999652582660E-011
 -1.800000000000000E-002   -1.283517993770561E-010
 -1.790000000000000E-002   -2.972807804713077E-010
 -1.780000000000000E-002   -4.702058759129770E-010
 -1.770000000000000E-002   -6.385150655704727E-010
 -1.760000000000000E-002   -7.929792504301848E-010
 -1.750000000000000E-002   -9.241998756188273E-010
 -1.740000000000000E-002   -1.023095942457095E-009
 -1.730000000000000E-002   -1.081404209296685E-009
 -1.720000000000000E-002   -1.092164422739202E-009
 -1.710000000000000E-002   -1.050162088351259E-009
 -1.700000000000000E-002   -9.523042624865004E-010
 -1.690000000000000E-002   -7.979089140002749E-010
 -1.680000000000000E-002   -5.888919230723983E-010
 -1.670000000000000E-002   -3.298447032152586E-010
 -1.660000000000000E-002   -2.799861477069933E-011
 -1.650000000000000E-002    3.069199859559703E-010
 -1.640000000000000E-002    6.629360407442491E-010
 -1.630000000000000E-002    1.026163615490771E-009
 -1.620000000000000E-002    1.381221817158424E-009
 -1.610000000000000E-002    1.711716209836007E-009
 -1.600000000000000E-002    2.000774264555210E-009
 -1.590000000000000E-002    2.231622916953170E-009
 -1.580000000000000E-002    2.388200679346109E-009
 -1.570000000000000E-002    2.455794325038766E-009
 -1.560000000000000E-002    2.421693135522272E-009
 -1.550000000000000E-002    2.275848417361884E-009
 -1.540000000000000E-002    2.011527614539044E-009
 -1.530000000000000E-002    1.625942074633354E-009
 -1.520000000000000E-002    1.120825902865158E-009
 -1.510000000000000E-002    5.029339265874699E-010
 -1.500000000000000E-002   -2.155757062101971E-010
 -1.490000000000000E-002   -1.016917315624150E-009
 -1.480000000000000E-002   -1.877652462091335E-009
 -1.470000000000000E-002   -2.768906305123048E-009
 -1.460000000000000E-002   -3.656859800119057E-009
 -1.450000000000000E-002   -4.503543050489601E-009
 -1.440000000000000E-002   -5.267941427546561E-009
 -1.430000000000000E-002   -5.907406407790064E-009
 -1.420000000000000E-002   -6.379343295885486E-009
 -1.410000000000000E-002   -6.643128244851081E-009
 -1.400000000000000E-002   -6.662179977486563E-009
 -1.390000000000000E-002   -6.406101265336792E-009
 -1.380000000000000E-002   -5.852785310476314E-009
 -1.370000000000000E-002   -4.990371322185771E-009
 -1.360000000000000E-002   -3.818940863437801E-009
 -1.350000000000000E-002   -2.351842327348179E-009
 -1.340000000000000E-002   -6.165488661163117E-010
 -1.330000000000000E-002    1.345023395664350E-009
 -1.320000000000000E-002    3.476791999805306E-009
 -1.310000000000000E-002    5.709399052263946E-009
 -1.300000000000000E-002    7.961710419617840E-009
 -1.290000000000000E-002    1.014288776760401E-008
 -1.280000000000000E-002    1.215497331930957E-008
 -1.270000000000000E-002    1.389590465390147E-008
 -1.260000000000000E-002    1.526286658437030E-008
 -1.250000000000000E-002    1.615587504407571E-008
 -1.240000000000000E-002    1.648149901738699E-008
 -1.230000000000000E-002    1.615661092470613E-008
 -1.220000000000000E-002    1.511209306323514E-008
 -1.210000000000000E-002    1.329642284654848E-008
 -1.200000000000000E-002    1.067908032473880E-008
 -1.190000000000000E-002    7.253737261451104E-009
 -1.180000000000000E-002    3.041190166671008E-009
 -1.170000000000000E-002   -1.907990245501784E-009
 -1.160000000000000E-002   -7.511114759177888E-009
 -1.150000000000000E-002   -1.365138016229228E-008
 -1.140000000000000E-002   -2.017624692514774E-008
 -1.130000000000000E-002   -2.689625325083607E-008
 -1.120000000000000E-002   -3.358433254971148E-008
 -1.110000000000000E-002   -3.997568846206242E-008
 -1.100000000000000E-002   -4.576831958803416E-008
 -1.090000000000000E-002   -5.062426942023187E-008
 -1.080000000000000E-002   -5.417166237343236E-008
 -1.070000000000000E-002   -5.600755817870503E-008
 -1.060000000000000E-002   -5.570166855961595E-008
 -1.050000000000000E-002   -5.280088514399974E-008
 -1.040000000000000E-002   -4.683457876918489E-008
 -1.030000000000000E-002   -3.732053676907689E-008
 -1.020000000000000E-002   -2.377139030817313E-008
 -1.010000000000000E-002   -5.701338696432311E-009
 -1.000000000000000E-002    1.736708219127530E-008
 -9.899999999999999E-003    4.589645687541355E-008
 -9.800000000000000E-003    8.032838702645609E-008
 -9.699999999999999E-003    1.210781105571260E-007
 -9.599999999999999E-003    1.685301482319275E-007
 -9.500000000000000E-003    2.230351105029916E-007
 -9.399999999999999E-003    2.849077850555030E-007
 -9.299999999999999E-003    3.544266802330890E-007
 -9.200000000000000E-003    4.318349366330184E-007
 -9.099999999999999E-003    5.173428005521955E-007
 -8.999999999999999E-003    6.111312402585850E-007
 -8.900000000000000E-003    7.133568630669592E-007
 -8.799999999999999E-003    8.241575305707261E-007
 -8.699999999999999E-003    9.436589123074623E-007
 -8.600000000000000E-003    1.071981891449210E-006
 -8.499999999999999E-003    1.209249353706980E-006
 -8.399999999999999E-003    1.355594166189840E-006
 -8.300000000000000E-003    1.511166401118047E-006
 -8.199999999999999E-003    1.676140929275691E-006
 -8.100000000000000E-003    1.850724030215704E-006
 -8.000000000000000E-003    2.035161092005017E-006
 -7.899999999999999E-003    2.229742563607511E-006
 -7.800000000000000E-003    2.434811127110315E-006
 -7.699999999999999E-003    2.650767538366456E-006
 -7.599999999999999E-003    2.878076951865059E-006
 -7.499999999999999E-003    3.117276002872321E-006
 -7.399999999999999E-003    3.368977831678972E-006
 -7.299999999999999E-003    3.633878619388280E-006
 -7.199999999999999E-003    3.912763256026193E-006
 -7.100000000000000E-003    4.206510686858626E-006
 -6.999999999999999E-003    4.516098650976394E-006
 -6.899999999999999E-003    4.842606982500927E-006
 -6.800000000000000E-003    5.187220738921421E-006
 -6.699999999999999E-003    5.551231848817260E-006
 -6.599999999999999E-003    5.936038527591763E-006
 -6.499999999999999E-003    6.343144490501715E-006
 -6.399999999999999E-003    6.774155598485481E-006
 -6.299999999999999E-003    7.230774917215859E-006
 -6.199999999999999E-003    7.714797374390199E-006
 -6.100000000000000E-003    8.228103743938976E-006
 -5.999999999999999E-003    8.772651805992821E-006
 -5.899999999999999E-003    9.350469853678166E-006
 -5.800000000000000E-003    9.963650287545882E-006
 -5.699999999999999E-003    1.061434255274693E-005
 -5.599999999999999E-003    1.130474919512348E-005
 -5.499999999999999E-003    1.203712233311387E-005
 -5.399999999999999E-003    1.281376607124570E-005
 -5.299999999999999E-003    1.363703668651736E-005
 -5.199999999999999E-003    1.450934859449992E-005
 -5.099999999999999E-003    1.543318369087823E-005
 -4.999999999999999E-003    1.641110353297415E-005
 -4.899999999999999E-003    1.744576067431533E-005
 -4.799999999999999E-003    1.853991673746484E-005
 -4.699999999999999E-003    1.969645772220547E-005
 -4.599999999999999E-003    2.091841520609526E-005
 -4.499999999999999E-003    2.220898604208406E-005
 -4.399999999999999E-003    2.357154950886103E-005
 -4.299999999999999E-003    2.500968718809444E-005
 -4.199999999999999E-003    2.652720383388492E-005
 -4.099999999999999E-003    2.812813875088907E-005
 -3.999999999999999E-003    2.981678474184840E-005
 -3.899999999999999E-003    3.159769773418392E-005
 -3.799999999999999E-003    3.347570309499244E-005
 -3.699999999999999E-003    3.545591796049508E-005
 -3.599999999999999E-003    3.754374263868615E-005
 -3.499999999999999E-003    3.974486788475303E-005
 -3.399999999999999E-003    4.206528328765174E-005
 -3.299999999999999E-003    4.451127256253226E-005
 -3.199999999999999E-003    4.708941624944055E-005
 -3.099999999999999E-003    4.980658813163294E-005
 -2.999999999999999E-003    5.266996159163823E-005
 -2.899999999999999E-003    5.568700111109446E-005
 -2.799999999999999E-003    5.886546049092219E-005
 -2.699999999999999E-003    6.221340107193773E-005
 -2.599999999999999E-003    6.573917086924122E-005
 -2.499999999999999E-003    6.945143433643549E-005
 -2.399999999999999E-003    7.335916447639934E-005
 -2.299999999999999E-003    7.747165870530612E-005
 -2.199999999999999E-003    8.179854810713652E-005
 -2.099999999999999E-003    8.634982120080669E-005
 -1.999999999999999E-003    9.113582963777573E-005
 -1.899999999999999E-003    9.616731929497967E-005
 -1.799999999999999E-003    1.014554580725954E-004
 -1.699999999999999E-003    1.070118595640738E-004
 -1.599999999999999E-003    1.128486008619235E-004
 -1.499999999999999E-003    1.189782669946429E-004
 -1.399999999999999E-003    1.254139625224935E-004
 -1.299999999999999E-003    1.321693588521844E-004
 -1.199999999999999E-003    1.392587214898700E-004
 -1.099999999999999E-003    1.466969134899617E-004
 -9.999999999999989E-004    1.544994626472096E-004
 -8.999999999999990E-004    1.626825474015501E-004
 -7.999999999999990E-004    1.712630523631836E-004
 -6.999999999999989E-004    1.802585624929364E-004
 -5.999999999999990E-004    1.896874020664027E-004
 -4.999999999999989E-004    1.995686553227182E-004
 -3.999999999999989E-004    2.099221812139881E-004
 -2.999999999999989E-004    2.207686226972689E-004
 -1.999999999999989E-004    2.321294095299327E-004
 -9.999999999999892E-005    2.440268300360822E-004
  1.084202172485504E-018    2.564839987790534E-004
  1.000000000000011E-004    2.695248732001767E-004
  2.000000000000011E-004    2.831742694149638E-004
  3.000000000000011E-004    2.974579247240412E-004
  4.000000000000011E-004    3.124024458843542E-004
  5.000000000000011E-004    3.280353505121263E-004
  6.000000000000011E-004    3.443851013709581E-004
  7.000000000000011E-004    3.614810982352275E-004
  8.000000000000011E-004    3.793536337945373E-004
  9.000000000000012E-004    3.980340212850952E-004
  1.000000000000001E-003    4.175544954875010E-004
  1.100000000000001E-003    4.379483296532597E-004
  1.200000000000001E-003    4.592497539355398E-004
  1.300000000000001E-003    4.814939998316969E-004
  1.400000000000001E-003    5.047173710179978E-004
  1.500000000000001E-003    5.289572227858341E-004
  1.600000000000001E-003    5.542520432768364E-004
  1.700000000000001E-003    5.806413664516758E-004
  1.800000000000001E-003    6.081659896097360E-004
  1.900000000000001E-003    6.368678990575042E-004
  2.000000000000001E-003    6.667902961774658E-004
  2.100000000000001E-003    6.979777478129665E-004
  2.200000000000001E-003    7.304761937901691E-004
  2.300000000000001E-003    7.643328981737304E-004
  2.400000000000001E-003    7.995967082753226E-004
  2.500000000000001E-003    8.363179118738494E-004
  2.600000000000001E-003    8.745483337099583E-004
  2.700000000000001E-003    9.143415104813344E-004
  2.800000000000001E-003    9.557525462780186E-004
  2.900000000000001E-003    9.988380429202764E-004
  3.000000000000001E-003    1.043656496946660E-003
  3.100000000000001E-003    1.090267826742142E-003
  3.200000000000001E-003    1.138733873136981E-003
  3.300000000000001E-003    1.189117874874515E-003
  3.400000000000001E-003    1.241484844434393E-003
  3.500000000000001E-003    1.295901388771675E-003
  3.600000000000001E-003    1.352435733577542E-003
  3.700000000000001E-003    1.411157706145887E-003
  3.800000000000001E-003    1.472138743422625E-003
  3.900000000000001E-003    1.535451606440827E-003
  4.000000000000001E-003    1.601170869055319E-003
  4.100000000000001E-003    1.669372423983427E-003
  4.200000000000001E-003    1.740133809612423E-003
  4.300000000000001E-003    1.813534100580134E-003
  4.400000000000001E-003    1.889653892888682E-003
  4.500000000000001E-003    1.968575319629779E-003
  4.600000000000002E-003    2.050381923463561E-003
  4.700000000000001E-003    2.135158872889420E-003
  4.800000000000001E-003    2.222993309351493E-003
  4.900000000000002E-003    2.313973381111427E-003
  5.000000000000001E-003    2.408189113640180E-003
  5.100000000000001E-003    2.505732313962345E-003
  5.200000000000001E-003    2.606695921456913E-003
  5.300000000000002E-003    2.711175148973508E-003
  5.400000000000001E-003    2.819266414625805E-003
  5.500000000000001E-003    2.931067912240778E-003
  5.600000000000002E-003    3.046679265589986E-003
  5.700000000000001E-003    3.166202073848360E-003
  5.800000000000001E-003    3.289739389371332E-003
  5.900000000000002E-003    3.417395387597201E-003
  6.000000000000001E-003    3.549276221889212E-003
  6.100000000000001E-003    3.685489261750074E-003
  6.200000000000002E-003    3.826143326704773E-003
  6.300000000000002E-003    3.971348759409932E-003
  6.400000000000001E-003    4.121216690631549E-003
  6.500000000000001E-003    4.275860201255494E-003
  6.600000000000002E-003    4.435392894892903E-003
  6.700000000000001E-003    4.599929901465092E-003
  6.800000000000001E-003    4.769587098984816E-003
  6.900000000000002E-003    4.944481261449319E-003
  7.000000000000001E-003    5.124729279874922E-003
  7.100000000000001E-003    5.310449663949730E-003
  7.200000000000002E-003    5.501760886180345E-003
  7.300000000000002E-003    5.698781738280869E-003
  7.400000000000001E-003    5.901631835752016E-003
  7.500000000000001E-003    6.110430782926880E-003
  7.600000000000002E-003    6.325298417021877E-003
  7.700000000000001E-003    6.546354580871177E-003
  7.800000000000001E-003    6.773718471581916E-003
  7.900000000000001E-003    7.007509253108397E-003
  8.000000000000002E-003    7.247846437977736E-003
  8.100000000000001E-003    7.494848174893290E-003
  8.200000000000001E-003    7.748633036464229E-003
  8.300000000000002E-003    8.009317662460370E-003
  8.400000000000001E-003    8.277019528261939E-003
  8.500000000000002E-003    8.551854364069873E-003
  8.600000000000002E-003    8.833935847662577E-003
  8.700000000000001E-003    9.123378164163184E-003
  8.800000000000002E-003    9.420293310981601E-003
  8.900000000000002E-003    9.724791588045715E-003
  9.000000000000001E-003    1.003698284363556E-002
  9.100000000000002E-003    1.035697336388355E-002
  9.200000000000002E-003    1.068486830733351E-002
  9.300000000000001E-003    1.102077057163584E-002
  9.400000000000002E-003    1.136478097834949E-002
  9.500000000000001E-003    1.171699641442137E-002
  9.600000000000001E-003    1.207751178656897E-002
  9.700000000000002E-003    1.244641882966560E-002
  9.800000000000001E-003    1.282380566843580E-002
  9.900000000000001E-003    1.320975740969052E-002
  1.000000000000000E-002    1.360435433560951E-002
  1.010000000000000E-002    1.400767383968664E-002
  1.020000000000000E-002    1.441978755611702E-002
  1.030000000000000E-002    1.484076437554152E-002
  1.040000000000000E-002    1.527066712835194E-002
  1.050000000000000E-002    1.570955315016644E-002
  1.060000000000000E-002    1.615747610963861E-002
  1.070000000000000E-002    1.661448249259993E-002
  1.080000000000000E-002    1.708061443115656E-002
  1.090000000000000E-002    1.755590642919163E-002
  1.100000000000000E-002    1.804038887667784E-002
  1.110000000000000E-002    1.853408354830468E-002
  1.120000000000000E-002    1.903700696733108E-002
  1.130000000000000E-002    1.954916754633721E-002
  1.140000000000000E-002    2.007056733638680E-002
  1.150000000000000E-002    2.060120068664013E-002
  1.160000000000000E-002    2.114105325092445E-002
  1.170000000000000E-002    2.169010282970411E-002
  1.180000000000000E-002    2.224832111063740E-002
  1.190000000000000E-002    2.281566813367424E-002
  1.200000000000000E-002    2.339209570307775E-002
  1.210000000000000E-002    2.397754972406372E-002
  1.220000000000000E-002    2.457196421758035E-002
  1.230000000000000E-002    2.517526311020369E-002
  1.240000000000000E-002    2.578736152704902E-002
  1.250000000000000E-002    2.640816510673800E-002
  1.260000000000000E-002    2.703756731532131E-002
  1.270000000000000E-002    2.767545133193729E-002
  1.280000000000000E-002    2.832169043305311E-002
  1.290000000000000E-002    2.897614615225548E-002
  1.300000000000000E-002    2.963866707992584E-002
  1.310000000000000E-002    3.030909177544200E-002
  1.320000000000000E-002    3.098724374750991E-002
  1.330000000000000E-002    3.167294036360986E-002
  1.340000000000000E-002    3.236597944338406E-002
  1.350000000000000E-002    3.306614942232702E-002
  1.360000000000000E-002    3.377322885463573E-002
  1.370000000000000E-002    3.448697908530615E-002
  1.380000000000000E-002    3.520714992201409E-002
  1.390000000000000E-002    3.593347967927420E-002
  1.400000000000000E-002    3.666569018558528E-002
  1.410000000000000E-002    3.740349118207776E-002
  1.420000000000000E-002    3.814657642451180E-002
  1.430000000000000E-002    3.889463039647807E-002
  1.440000000000000E-002    3.964732074540273E-002
  1.450000000000000E-002    4.040430020238855E-002
  1.460000000000000E-002    4.116521143201195E-002
  1.470000000000000E-002    4.192967917066293E-002
  1.480000000000000E-002    4.269731325078887E-002
  1.490000000000000E-002    4.346771170546918E-002
  1.500000000000000E-002    4.424046004919477E-002
  1.510000000000000E-002    4.501512628335658E-002
  1.520000000000000E-002    4.579126303533373E-002
  1.530000000000000E-002    4.656841126071142E-002
  1.540000000000000E-002    4.734609259731387E-002
  1.550000000000000E-002    4.812382219601813E-002
  1.560000000000000E-002    4.890109627876839E-002
  1.570000000000000E-002    4.967739496573007E-002
  1.580000000000000E-002    5.045219046592350E-002
  1.590000000000000E-002    5.122493349684975E-002
  1.600000000000000E-002    5.199506414043238E-002
  1.610000000000000E-002    5.276201193896132E-002
  1.620000000000000E-002    5.352518729288607E-002
  1.630000000000000E-002    5.428399134780727E-002
  1.640000000000000E-002    5.503780861304634E-002
  1.650000000000000E-002    5.578601083010992E-002
  1.660000000000000E-002    5.652795697032242E-002
  1.670000000000000E-002    5.726299874253932E-002
  1.680000000000000E-002    5.799047093055921E-002
  1.690000000000000E-002    5.870969332369751E-002
  1.700000000000000E-002    5.941998037375046E-002
  1.710000000000000E-002    6.012063552489144E-002
  1.720000000000000E-002    6.081094721198873E-002
  1.730000000000000E-002    6.149019493868763E-002
  1.740000000000000E-002    6.215764933019638E-002
  1.750000000000000E-002    6.281257145751233E-002
  1.760000000000000E-002    6.345421062569265E-002
  1.770000000000000E-002    6.408181321826323E-002
  1.780000000000000E-002    6.469461398347383E-002
  1.790000000000000E-002    6.529184233135155E-002
  1.800000000000000E-002    6.587271815773402E-002
  1.810000000000000E-002    6.643645822405100E-002
  1.820000000000000E-002    6.698227311748611E-002
  1.830000000000000E-002    6.750936567637314E-002
  1.840000000000000E-002    6.801694144153135E-002
  1.850000000000000E-002    6.850418906061159E-002
  1.860000000000000E-002    6.897030711994681E-002
  1.870000000000000E-002    6.941448854374693E-002