 -4.000000000000000E-002    0.000000000000000E+000
 -3.990000000000000E-002    0.000000000000000E+000
 -3.980000000000000E-002    0.000000000000000E+000
 -3.970000000000000E-002    0.000000000000000E+000
 -3.960000000000000E-002    0.000000000000000E+000
 -3.950000000000000E-002    0.000000000000000E+000
 -3.940000000000000E-002    0.000000000000000E+000
 -3.930000000000000E-002    0.000000000000000E+000
 -3.920000000000000E-002    0.000000000000000E+000
 -3.910000000000000E-002    1.496252006517191E-031
 -3.900000000000000E-002    4.047176697993002E-030
 -3.890000000000000E-002    5.047006187610257E-029
 -3.880000000000000E-002    4.085352371267197E-028
 -3.870000000000000E-002    2.469924599141046E-027
 -3.860000000000000E-002    1.202709397771015E-026
 -3.850000000000000E-002    4.941292649497287E-026
 -3.840000000000000E-002    1.766959331746422E-025
 -3.830000000000000E-002    5.621671996639901E-025
 -3.820000000000000E-002    1.617209157641221E-024
 -3.810000000000000E-002    4.257988734915742E-024
 -3.800000000000000E-002    1.035637029323396E-023
 -3.790000000000000E-002    2.343441262353168E-023
 -3.780000000000000E-002    4.959743694726607E-023
 -3.770000000000000E-002    9.855491295840694E-023
 -3.760000000000000E-002    1.843068320944335E-022
 -3.750000000000000E-002    3.246490242146998E-022
 -3.740000000000000E-002    5.380863203889859E-022
 -3.730000000000000E-002    8.361198065438813E-022
 -3.720000000000000E-002    1.208384266310597E-021
 -3.710000000000000E-002    1.598071649809425E-021
 -3.700000000000000E-002    1.865936052420058E-021
 -3.690000000000000E-002    1.743459358333166E-021
 -3.680000000000000E-002    7.799611443214647E-022
 -3.670000000000000E-002   -1.705160486247539E-021
 -3.660000000000000E-002   -6.645444504808759E-021
 -3.650000000000000E-002   -1.519649142444933E-020
 -3.640000000000000E-002   -2.861327960947902E-020
 -3.630000000000000E-002   -4.799272821238533E-020
 -3.620000000000000E-002   -7.384123225411182E-020
 -3.610000000000000E-002   -1.054417129871403E-019
 -3.600000000000000E-002   -1.400260668235980E-019
 -3.590000000000000E-002   -1.718092848791446E-019
 -3.580000000000000E-002   -1.910111048011886E-019
 -3.570000000000000E-002   -1.830745302754018E-019
 -3.560000000000000E-002   -1.283779663318822E-019
 -3.550000000000000E-002   -2.811848515907455E-021
 -3.540000000000000E-002    2.203721948691374E-019
 -3.530000000000000E-002    5.670559648524273E-019
 -3.520000000000000E-002    1.056824474872575E-018
 -3.510000000000000E-002    1.695565844710823E-018
 -3.500000000000000E-002    2.466398539504078E-018
 -3.490000000000000E-002    3.319671773669407E-018
 -3.480000000000000E-002    4.163304954960668E-018
 -3.470000000000000E-002    4.855253674760514E-018
 -3.460000000000000E-002    5.200336943021043E-018
 -3.450000000000000E-002    4.953894825377589E-018
 -3.440000000000000E-002    3.834689009486655E-018
 -3.430000000000000E-002    1.548970425409160E-018
 -3.420000000000000E-002   -2.173317173632119E-018
 -3.410000000000000E-002   -7.530682906148690E-018
 -3.400000000000000E-002   -1.459292400194485E-017
 -3.390000000000000E-002   -2.323911112513054E-017
 -3.380000000000000E-002   -3.309729469957350E-017
 -3.370000000000000E-002   -4.349429698458346E-017
 -3.360000000000000E-002   -5.342510493786976E-017
 -3.350000000000000E-002   -6.155149405438476E-017
 -3.340000000000000E-002   -6.623845089160286E-017
 -3.330000000000000E-002   -6.563451232650907E-017
 -3.320000000000000E-002   -5.779851405455126E-017
 -3.310000000000000E-002   -4.087058158383946E-017
 -3.300000000000000E-002   -1.328024892685501E-017
 -3.290000000000000E-002    2.602028946594492E-017
 -3.280000000000000E-002    7.731371796344225E-017
 -3.270000000000000E-002    1.398842436560505E-016
 -3.260000000000000E-002    2.118123868714353E-016
 -3.250000000000000E-002    2.898156237471618E-016
 -3.240000000000000E-002    3.691500607582376E-016
 -3.230000000000000E-002    4.435850514329327E-016
 -3.220000000000000E-002    5.054602316738168E-016
 -3.210000000000000E-002    5.458332330804761E-016
 -3.200000000000000E-002    5.547289406547183E-016
 -3.190000000000000E-002    5.215056354959058E-016
 -3.180000000000000E-002    4.353613818425659E-016
 -3.170000000000000E-002    2.860122920078010E-016
 -3.160000000000000E-002    6.457992559907809E-017
 -3.150000000000000E-002   -2.352757774854789E-016
 -3.140000000000000E-002   -6.159539044776594E-016
 -3.130000000000000E-002   -1.074244930455556E-015
 -3.120000000000000E-002   -1.599450161213579E-015
 -3.110000000000000E-002   -2.171407429790728E-015
 -3.100000000000000E-002   -2.758625395379537E-015
 -3.090000000000000E-002   -3.316819213868345E-015
 -3.080000000000000E-002   -3.788226807589980E-015
 -3.070000000000000E-002   -4.102145667068840E-015
 -3.060000000000000E-002   -4.177151989849206E-015
 -3.050000000000000E-002   -3.925416626562122E-015
 -3.040000000000000E-002   -3.259411005337184E-015
 -3.030000000000000E-002   -2.101075973996136E-015
 -3.020000000000000E-002   -3.932276905898701E-016
 -3.010000000000000E-002    1.887410847509734E-015
 -3.000000000000000E-002    4.716573538265701E-015
 -2.990000000000000E-002    8.009650805878822E-015
 -2.980000000000000E-002    1.161150865053055E-014
 -2.970000000000000E-002    1.529090729502592E-014
 -2.960000000000000E-002    1.874152472427879E-014
 -2.950000000000000E-002    2.159131502786734E-014
 -2.940000000000000E-002    2.342140331160241E-014
 -2.930000000000000E-002    2.379487867547430E-014
 -2.920000000000000E-002    2.229477670450609E-014
 -2.910000000000000E-002    1.856928601636591E-014
 -2.900000000000000E-002    1.238094587587400E-014
 -2.890000000000000E-002    3.655449142755595E-015
 -2.880000000000000E-002   -7.475202191687179E-015
 -2.870000000000000E-002   -2.064085192885579E-014
 -2.860000000000000E-002   -3.521806991199843E-014
 -2.850000000000000E-002   -5.033635537039581E-014
 -2.840000000000000E-002   -6.490862186765797E-014
 -2.830000000000000E-002   -7.768680348801465E-014
 -2.820000000000000E-002   -8.734082520999030E-014
 -2.810000000000000E-002   -9.255643683361374E-014
 -2.800000000000000E-002   -9.214485745286504E-014
 -2.790000000000000E-002   -8.515517184758363E-014
 -2.780000000000000E-002   -7.097920284716680E-014
 -2.770000000000000E-002   -4.943851262878929E-014
 -2.760000000000000E-002   -2.084432894351083E-014
 -2.750000000000000E-002    1.397650276740432E-014
 -2.740000000000000E-002    5.369305635094407E-014
 -2.730000000000000E-002    9.651901626700825E-014
 -2.720000000000000E-002    1.402940967709501E-013
 -2.710000000000000E-002    1.825902092950264E-013
 -2.700000000000000E-002    2.208319176617559E-013
 -2.690000000000000E-002    2.524196775919187E-013
 -2.680000000000000E-002    2.748452947091588E-013
 -2.670000000000000E-002    2.857916724246437E-013
 -2.660000000000000E-002    2.832131040573895E-013
 -2.650000000000000E-002    2.653978278010445E-013
 -2.640000000000000E-002    2.310194360469065E-013
 -2.630000000000000E-002    1.791887714003305E-013
 -2.620000000000000E-002    1.095197447106610E-013
 -2.610000000000000E-002    2.222259841215770E-014
 -2.600000000000000E-002   -8.176579277328058E-014
 -2.590000000000000E-002   -2.006126042014923E-013
 -2.580000000000000E-002   -3.313887205523186E-013
 -2.570000000000000E-002   -4.698579564453700E-013
 -2.560000000000000E-002   -6.102887800732694E-013
 -2.550000000000000E-002   -7.453325410882552E-013
 -2.540000000000000E-002   -8.660186369114480E-013
 -2.530000000000000E-002   -9.619175292026335E-013
 -2.520000000000000E-002   -1.021515739428279E-012
 -2.510000000000000E-002   -1.032830970718085E-012
 -2.500000000000000E-002   -9.842716449082570E-013
 -2.490000000000000E-002   -8.657151432228974E-013
 -2.480000000000000E-002   -6.697440052413198E-013
 -2.470000000000000E-002   -3.929459779403282E-013
 -2.460000000000000E-002   -3.715334305070069E-014
 -2.450000000000000E-002    3.895222131860519E-013
 -2.440000000000000E-002    8.720112024453553E-013
 -2.430000000000000E-002    1.388105193459420E-012
 -2.420000000000000E-002    1.908885995658085E-012
 -2.410000000000000E-002    2.399831688208229E-012
 -2.400000000000000E-002    2.822606904174380E-012
 -2.390000000000000E-002    3.137472881141445E-012
 -2.380000000000000E-002    3.306180929614940E-012
 -2.370000000000000E-002    3.295146957409471E-012
 -2.360000000000000E-002    3.078650836246053E-012
 -2.350000000000000E-002    2.641774756107128E-012
 -2.340000000000000E-002    1.982791545208520E-012
 -2.330000000000000E-002    1.114742209216478E-012
 -2.320000000000000E-002    6.599905808647504E-014
 -2.310000000000000E-002   -1.120306011268529E-012
 -2.300000000000000E-002   -2.388003694642452E-012
 -2.290000000000000E-002   -3.670673645472138E-012
 -2.280000000000000E-002   -4.895297830044474E-012
 -2.270000000000000E-002   -5.986504382816502E-012
 -2.260000000000000E-002   -6.871064919774196E-012
 -2.250000000000000E-002   -7.482287874055539E-012
 -2.240000000000000E-002   -7.763976618945500E-012
 -2.230000000000000E-002   -7.673669829887255E-012
 -2.220000000000000E-002   -7.184984229215901E-012
 -2.210000000000000E-002   -6.288978958351468E-012
 -2.200000000000000E-002   -4.994586859547398E-012
 -2.190000000000000E-002   -3.328251507088297E-012
 -2.180000000000000E-002   -1.332992597696507E-012
 -2.170000000000000E-002    9.328512996374491E-013
 -2.160000000000000E-002    3.396958477121225E-012
 -2.150000000000000E-002    5.974272260847545E-012
 -2.140000000000000E-002    8.568082564955370E-012
 -2.130000000000000E-002    1.107101366564148E-011
 -2.120000000000000E-002    1.336611831687743E-011
 -2.110000000000000E-002    1.532840777840270E-011
 -2.100000000000000E-002    1.682723108356348E-011
 -2.090000000000000E-002    1.772991738187808E-011
 -2.080000000000000E-002    1.790706077862665E-011
 -2.070000000000000E-002    1.723965431268205E-011
 -2.060000000000000E-002    1.562806696577289E-011
 -2.050000000000000E-002    1.300257086436253E-011
 -2.040000000000000E-002    9.334813963052871E-012
 -2.030000000000000E-002    4.649311391465615E-012
 -2.020000000000000E-002   -9.662018841445947E-013
 -2.010000000000000E-002   -7.352914145215096E-012
 -2.000000000000000E-002   -1.427692589577981E-011
 -1.990000000000000E-002   -2.143034883239503E-011
 -1.980000000000000E-002   -2.843847767513548E-011
 -1.970000000000000E-002   -3.487356971168630E-011
 -1.960000000000000E-002   -4.027520667061306E-011
 -1.950000000000000E-002   -4.417658596357156E-011
 -1.940000000000000E-002   -4.613540758880272E-011
 -1.930000000000000E-002   -4.576748289593848E-011
 -1.920000000000000E-002   -4.278065921878587E-011
 -1.910000000000000E-002   -3.700638566632945E-011
 -1.900000000000000E-002   -2.842617705833362E-011
 -1.890000000000000E-002   -1.719043678965941E-011
 -1.880000000000000E-002   -3.627469413725621E-012
 -1.870000000000000E-002    1.175877014463716E-011
 -1.860000000000000E-002    2.830283351901863E-011
 -1.850000000000000E-002    4.520363344011811E-011
 -1.840000000000000E-002    6.156079778643830E-011
 -1.830000000000000E-002    7.641956699859356E-011
 -1.820000000000000E-002    8.882154242661015E-011
 -1.810000000000000E-002    9.785819704546321E-011
 -1.800000000000000E-002    1.027239066743407E-010
 -1.790000000000000E-002    1.027652948618299E-010
 -1.780000000000000E-002    9.752410005869797E-011
 -1.770000000000000E-002    8.677127730045707E-011
 -1.760000000000000E-002    7.053086812817520E-011
 -1.750000000000000E-002    4.909264721324355E-011
 -1.740000000000000E-002    2.301353589858089E-011
 -1.730000000000000E-002   -6.891779661663692E-012
 -1.720000000000000E-002   -3.957033573676356E-011
 -1.710000000000000E-002   -7.375928987611890E-011
 -1.700000000000000E-002   -1.080222668768908E-010
 -1.690000000000000E-002   -1.407928589473560E-010
 -1.680000000000000E-002   -1.704244624528380E-010
 -1.670000000000000E-002   -1.952462653118498E-010
 -1.660000000000000E-002   -2.136249462571198E-010
 -1.650000000000000E-002   -2.240319834377911E-010
 -1.640000000000000E-002   -2.251158587785520E-010
 -1.630000000000000E-002   -2.157781998155689E-010
 -1.620000000000000E-002   -1.952517897992513E-010
 -1.610000000000000E-002   -1.631777262060263E-010
 -1.600000000000000E-002   -1.196774604209465E-010
 -1.590000000000000E-002   -6.541500473807388E-011
 -1.580000000000000E-002   -1.643154381732878E-012
 -1.570000000000000E-002    6.977242579959763E-011
 -1.560000000000000E-002    1.463574049806419E-010
 -1.550000000000000E-002    2.250668570693358E-010
 -1.540000000000000E-002    3.023611663232705E-010
 -1.530000000000000E-002    3.743217292566493E-010
 -1.520000000000000E-002    4.368057626056903E-010
 -1.510000000000000E-002    4.856364997476433E-010
 -1.500000000000000E-002    5.168216774714823E-010
 -1.490000000000000E-002    5.267904991352164E-010
 -1.480000000000000E-002    5.126360505823864E-010
 -1.470000000000000E-002    4.723485746838254E-010
 -1.460000000000000E-002    4.050240301626978E-010
 -1.450000000000000E-002    3.110315932209501E-010
 -1.440000000000000E-002    1.921265539341319E-010
 -1.430000000000000E-002    5.149552613252956E-011
 -1.420000000000000E-002   -1.062734251450734E-010
 -1.410000000000000E-002   -2.753008795224230E-010
 -1.400000000000000E-002   -4.486051871087698E-010
 -1.390000000000000E-002   -6.183650865447574E-010
 -1.380000000000000E-002   -7.762454646830375E-010
 -1.370000000000000E-002   -9.137711989991756E-010
 -1.360000000000000E-002   -1.022731576478729E-009
 -1.350000000000000E-002   -1.095594511369496E-009
 -1.340000000000000E-002   -1.125910001806333E-009
 -1.330000000000000E-002   -1.108681490801302E-009
 -1.320000000000000E-002   -1.040686432836477E-009
 -1.310000000000000E-002   -9.207293355263483E-010
 -1.300000000000000E-002   -7.498144624062193E-010
 -1.290000000000000E-002   -5.312290300312943E-010
 -1.280000000000000E-002   -2.705321373535251E-010
 -1.270000000000000E-002    2.455100246138406E-011
 -1.260000000000000E-002    3.443274581525558E-010
 -1.250000000000000E-002    6.774196951314668E-010
 -1.240000000000000E-002    1.011125793642103E-009
 -1.230000000000000E-002    1.331844678585582E-009
 -1.220000000000000E-002    1.625553363999925E-009
 -1.210000000000000E-002    1.878322431369642E-009
 -1.200000000000000E-002    2.076853981099407E-009
 -1.190000000000000E-002    2.209026292277633E-009
 -1.180000000000000E-002    2.264427497294909E-009
 -1.170000000000000E-002    2.234861152352797E-009
 -1.160000000000000E-002    2.114805322718861E-009
 -1.150000000000000E-002    1.901804286214822E-009
 -1.140000000000000E-002    1.596777047277655E-009
 -1.130000000000000E-002    1.204220704725699E-009
 -1.120000000000000E-002    7.322941883727816E-010
 -1.110000000000000E-002    1.927672187034010E-010
 -1.100000000000000E-002   -3.991767028957582E-010
 -1.090000000000000E-002   -1.025286720925867E-009
 -1.080000000000000E-002   -1.664741474376463E-009
 -1.070000000000000E-002   -2.294786373885331E-009
 -1.060000000000000E-002   -2.891495752162573E-009
 -1.050000000000000E-002   -3.430635764113382E-009
 -1.040000000000000E-002   -3.888596560501842E-009
 -1.030000000000000E-002   -4.243356088837404E-009
 -1.020000000000000E-002   -4.475433820566585E-009
 -1.010000000000000E-002   -4.568790010138057E-009
 -1.000000000000000E-002   -4.511626224954405E-009
 -9.899999999999999E-003   -4.297048442201070E-009
 -9.800000000000000E-003   -3.923554508992813E-009
 -9.699999999999999E-003   -3.395323892825878E-009
 -9.599999999999999E-003   -2.722289026300797E-009
 -9.500000000000000E-003   -1.919985814567985E-009
 -9.399999999999999E-003   -1.009187399514957E-009
 -9.299999999999999E-003   -1.534146196771902E-011
 -9.200000000000000E-003    1.032164421411417E-009
 -9.099999999999999E-003    2.100871905451921E-009
 -8.999999999999999E-003    3.156214869607080E-009
 -8.900000000000000E-003    4.162534822001152E-009
 -8.799999999999999E-003    5.084105820769187E-009
 -8.699999999999999E-003    5.886127432769842E-009
 -8.600000000000000E-003    6.535657859660984E-009
 -8.499999999999999E-003    7.002459587996754E-009
 -8.399999999999999E-003    7.259746218794972E-009
 -8.300000000000000E-003    7.284822514561462E-009
 -8.199999999999999E-003    7.059627408203237E-009
 -8.100000000000000E-003    6.571193606307982E-009
 -8.000000000000000E-003    5.812050867905816E-009
 -7.899999999999999E-003    4.780592680263222E-009
 -7.800000000000000E-003    3.481449484028812E-009
 -7.699999999999999E-003    1.925895332126632E-009
 -7.599999999999999E-003    1.323173034336166E-010
 -7.499999999999999E-003   -1.873220627031512E-009
 -7.399999999999999E-003   -4.056305682633386E-009
 -7.299999999999999E-003   -6.373379942494016E-009
 -7.199999999999999E-003   -8.770820810640509E-009
 -7.100000000000000E-003   -1.118390851683823E-008
 -6.999999999999999E-003   -1.353570341020626E-008
 -6.899999999999999E-003   -1.573586136175426E-008
 -6.800000000000000E-003   -1.767943561979990E-008
 -6.699999999999999E-003   -1.924571623596621E-008
 -6.599999999999999E-003   -2.029716927392097E-008
 -6.499999999999999E-003   -2.067854249174945E-008
 -6.399999999999999E-003   -2.021620424057453E-008
 -6.299999999999999E-003   -1.871779871255852E-008
 -6.199999999999999E-003   -1.597226675338863E-008
 -6.100000000000000E-003   -1.175030154071026E-008
 -5.999999999999999E-003   -5.805287806766296E-009
 -5.899999999999999E-003    2.125250808467619E-009
 -5.800000000000000E-003    1.231767112496197E-008
 -5.699999999999999E-003    2.505974110634767E-008
 -5.599999999999999E-003    4.064763426523453E-008
 -5.499999999999999E-003    5.938256957274310E-008
 -5.399999999999999E-003    8.156705926302536E-008
 -5.299999999999999E-003    1.075009695570649E-007
 -5.199999999999999E-003    1.374774421908002E-007
 -5.099999999999999E-003    1.717789216274084E-007
 -4.999999999999999E-003    2.106733773072831E-007
 -4.899999999999999E-003    2.544108670596738E-007
 -4.799999999999999E-003    3.032207492680544E-007
 -4.699999999999999E-003    3.573094621648896E-007
 -4.599999999999999E-003    4.168592465143768E-007
 -4.499999999999999E-003    4.820278275291131E-007
 -4.399999999999999E-003    5.529490081666187E-007
 -4.299999999999999E-003    6.297345593618298E-007
 -4.199999999999999E-003    7.124769222539693E-007
 -4.099999999999999E-003    8.012533435912536E-007
 -3.999999999999999E-003    8.961305117111802E-007
 -3.899999999999999E-003    9.971706628543499E-007
 -3.799999999999999E-003    1.104437764373282E-006
 -3.699999999999999E-003    1.218004792615941E-006
 -3.599999999999999E-003    1.337961131956422E-006
 -3.499999999999999E-003    1.464420371423709E-006
 -3.399999999999999E-003    1.597527731635195E-006
 -3.299999999999999E-003    1.737467218488342E-006
 -3.199999999999999E-003    1.884469175469084E-006
 -3.099999999999999E-003    2.038816101027391E-006
 -2.999999999999999E-003    2.200848663212623E-006
 -2.899999999999999E-003    2.370970326266133E-006
 -2.799999999999999E-003    2.549651403503455E-006
 -2.699999999999999E-003    2.737432239695029E-006
 -2.599999999999999E-003    2.934924967232104E-006
 -2.499999999999999E-003    3.142814584884295E-006
 -2.399999999999999E-003    3.361859670780362E-006
 -2.299999999999999E-003    3.592891441038447E-006
 -2.199999999999999E-003    3.836811827911524E-006
 -2.099999999999999E-003    4.094592770909212E-006
 -1.999999999999999E-003    4.367272136519723E-006
 -1.899999999999999E-003    4.655952023040522E-006
 -1.799999999999999E-003    4.961794058949396E-006
 -1.699999999999999E-003    5.286016329479865E-006
 -1.599999999999999E-003    5.629889053627413E-006
 -1.499999999999999E-003    5.994731192449531E-006
 -1.399999999999999E-003    6.381906833223748E-006
 -1.299999999999999E-003    6.792821209889055E-006
 -1.199999999999999E-003    7.228916481166751E-006
 -1.099999999999999E-003    7.691673142961056E-006
 -9.999999999999989E-004    8.182603596300028E-006
 -8.999999999999990E-004    8.703255426401682E-006
 -7.999999999999990E-004    9.255210581450806E-006
 -6.999999999999989E-004    9.840086365793114E-006
 -5.999999999999990E-004    1.045953976141952E-005
 -4.999999999999989E-004    1.111527328515721E-005
 -3.999999999999989E-004    1.180903941580125E-005
 -2.999999999999989E-004    1.254265151962714E-005
 -1.999999999999989E-004    1.331799198228091E-005
 -9.999999999999892E-005    1.413702386430295E-005
  1.084202172485504E-018    1.500180353822124E-005
  1.000000000000011E-004    1.591449396686949E-005
  2.000000000000011E-004    1.687737574193978E-005
  3.000000000000011E-004    1.789286747502890E-005
  4.000000000000011E-004    1.896353161449683E-005
  5.000000000000011E-004    2.009209208959167E-005
  6.000000000000011E-004    2.128144539714173E-005
  7.000000000000011E-004    2.253466922878587E-005
  8.000000000000011E-004    2.385503342538399E-005
  9.000000000000012E-004    2.524600569028940E-005
  1.000000000000001E-003    2.671125599999901E-005
  1.100000000000001E-003    2.825465930577157E-005
  1.200000000000001E-003    2.988029441471257E-005
  1.300000000000001E-003    3.159244805142175E-005
  1.400000000000001E-003    3.339561146663469E-005
  1.500000000000001E-003    3.529447644968351E-005
  1.600000000000001E-003    3.729393186320223E-005
  1.700000000000001E-003    3.939906306880968E-005
  1.800000000000001E-003    4.161514121083097E-005
  1.900000000000001E-003    4.394763651206975E-005
  2.000000000000001E-003    4.640220726235852E-005
  2.100000000000001E-003    4.898470352858699E-005
  2.200000000000001E-003    5.170117327340069E-005
  2.300000000000001E-003    5.455786444982811E-005
  2.400000000000001E-003    5.756124492113377E-005
  2.500000000000001E-003    6.071800156217444E-005
  2.600000000000001E-003    6.403506992225397E-005
  2.700000000000001E-003    6.751962705449256E-005
  2.800000000000001E-003    7.117913800759895E-005
  2.900000000000001E-003    7.502135099141455E-005
  3.000000000000001E-003    7.905433051233390E-005
  3.100000000000001E-003    8.328648567361103E-005
  3.200000000000001E-003    8.772657711700632E-005
  3.300000000000001E-003    9.238374470216159E-005
  3.400000000000001E-003    9.726753372467080E-005
  3.500000000000001E-003    1.023879056696810E-004
  3.600000000000001E-003    1.077552708389542E-004
  3.700000000000001E-003    1.133804882870707E-004
  3.800000000000001E-003    1.192748786097447E-004
  3.900000000000001E-003    1.254502490477298E-004
  4.000000000000001E-003    1.319189001908617E-004
  4.100000000000001E-003    1.386936205391403E-004
  4.200000000000001E-003    1.457876886839029E-004
  4.300000000000001E-003    1.532149078282750E-004
  4.400000000000001E-003    1.609895950805038E-004
  4.500000000000001E-003    1.691265476962505E-004
  4.600000000000002E-003    1.776410921730304E-004
  4.700000000000001E-003    1.865490605488197E-004
  4.800000000000001E-003    1.958667947033658E-004
  4.900000000000002E-003    2.056111757810592E-004
  5.000000000000001E-003    2.157995775606258E-004
  5.100000000000001E-003    2.264499273482246E-004
  5.200000000000001E-003    2.375806781529775E-004
  5.300000000000002E-003    2.492108428984496E-004
  5.400000000000001E-003    2.613599975958127E-004
  5.500000000000001E-003    2.740482856400430E-004
  5.600000000000002E-003    2.872964961350468E-004
  5.700000000000001E-003    3.011259866787337E-004
  5.800000000000001E-003    3.155588064929730E-004
  5.900000000000002E-003    3.306176281432747E-004
  6.000000000000001E-003    3.463258459780959E-004
  6.100000000000001E-003    3.627075328199274E-004
  6.200000000000002E-003    3.797875777749693E-004
  6.300000000000002E-003    3.975915542478342E-004
  6.400000000000001E-003    4.161458935355495E-004
  6.500000000000001E-003    4.354777990963577E-004
  6.600000000000002E-003    4.556153632684070E-004
  6.700000000000001E-003    4.765874695980978E-004
  6.800000000000001E-003    4.984239317390486E-004
  6.900000000000002E-003    5.211555037700655E-004
  7.000000000000001E-003    5.448137895307275E-004
  7.100000000000001E-003    5.694313523575862E-004
  7.200000000000002E-003    5.950416846002826E-004
  7.300000000000002E-003    6.216792132559840E-004
  7.400000000000001E-003    6.493793652736353E-004
  7.500000000000001E-003    6.781784863471780E-004
  7.600000000000002E-003    7.081139116024129E-004
  7.700000000000001E-003    7.392239290166365E-004
  7.800000000000001E-003    7.715477438279436E-004
  7.900000000000001E-003    8.051255237499933E-004
  8.000000000000002E-003    8.399984295363974E-004
  8.100000000000001E-003    8.762084599532837E-004
  8.200000000000001E-003    9.137985343383581E-004
  8.300000000000002E-003    9.528125624135931E-004
  8.400000000000001E-003    9.932952435936333E-004
  8.500000000000002E-003    1.035292277631364E-003
  8.600000000000002E-003    1.078850171800609E-003
  8.700000000000001E-003    1.124016249867243E-003
  8.800000000000002E-003    1.170838869103177E-003
  8.900000000000002E-003    1.219367018736394E-003
  9.000000000000001E-003    1.269650790603070E-003
  9.100000000000002E-003    1.321741058454059E-003
  9.200000000000002E-003    1.375689483079252E-003
  9.300000000000001E-003    1.431548721803473E-003
  9.400000000000002E-003    1.489372299416053E-003
  9.500000000000001E-003    1.549214709435568E-003
  9.600000000000001E-003    1.611131196501066E-003
  9.700000000000002E-003    1.675178169620082E-003
  9.800000000000001E-003    1.741412720715121E-003
  9.900000000000001E-003    1.809893143784735E-003
  1.000000000000000E-002    1.880678416597819E-003
  1.010000000000000E-002    1.953828555696416E-003
  1.020000000000000E-002    2.029404576010452E-003
  1.030000000000000E-002    2.107468227323728E-003
  1.040000000000000E-002    2.188082108757775E-003
  1.050000000000000E-002    2.271310055145298E-003
  1.060000000000000E-002    2.357216430750064E-003
  1.070000000000000E-002    2.445866285211474E-003
  1.080000000000000E-002    2.537325428786024E-003
  1.090000000000000E-002    2.631660241775535E-003
  1.100000000000000E-002    2.728937887970970E-003
  1.110000000000000E-002    2.829225870904966E-003
  1.120000000000000E-002    2.932592267678948E-003
  1.130000000000000E-002    3.039105489967732E-003
  1.140000000000000E-002    3.148834083052040E-003
  1.150000000000000E-002    3.261847160915048E-003
  1.160000000000000E-002    3.378213177751348E-003
  1.170000000000000E-002    3.498001521105989E-003
  1.180000000000000E-002    3.621281496338216E-003
  1.190000000000000E-002    3.748121545033980E-003
  1.200000000000000E-002    3.878590901642709E-003
  1.210000000000000E-002    4.012757955330781E-003
  1.220000000000000E-002    4.150690986028052E-003
  1.230000000000000E-002    4.292458351778120E-003
  1.240000000000000E-002    4.438127645535831E-003
  1.250000000000000E-002    4.587765973990593E-003
  1.260000000000000E-002    4.741439955893330E-003
  1.270000000000000E-002    4.899215978973949E-003
  1.280000000000000E-002    5.061159385499425E-003
  1.290000000000000E-002    5.227335030787530E-003
  1.300000000000000E-002    5.397806741676174E-003
  1.310000000000000E-002    5.572637842893790E-003
  1.320000000000000E-002    5.751890480746399E-003
  1.330000000000000E-002    5.935625922820189E-003
  1.340000000000000E-002    6.123904473086695E-003
  1.350000000000000E-002    6.316784162352288E-003
  1.360000000000000E-002    6.514322869430522E-003
  1.370000000000000E-002    6.716576754444449E-003
  1.380000000000000E-002    6.923599565850209E-003
  1.390000000000000E-002    7.135443910045016E-003
  1.400000000000000E-002    7.352160710015888E-003
  1.410000000000000E-002    7.573798719928808E-003
  1.420000000000000E-002    7.800403322898910E-003
  1.430000000000000E-002    8.032019720326043E-003
  1.440000000000000E-002    8.268688537539851E-003
  1.450000000000000E-002    8.510448295636535E-003
  1.460000000000000E-002    8.757335491633505E-003
  1.470000000000000E-002    9.009383348828674E-003
  1.480000000000000E-002    9.266621087585514E-003
  1.490000000000000E-002    9.529075227652003E-003
  1.500000000000000E-002    9.796768191193541E-003
  1.510000000000000E-002    1.006971993887780E-002
  1.520000000000000E-002    1.034794602714017E-002
  1.530000000000000E-002    1.063145847684842E-002
  1.540000000000000E-002    1.092026448178489E-002
  1.550000000000000E-002    1.121436648741094E-002
  1.560000000000000E-002    1.151376441934544E-002
  1.570000000000000E-002    1.181845293471196E-002
  1.580000000000000E-002    1.212842107347402E-002
  1.590000000000000E-002    1.244365509143895E-002
  1.600000000000000E-002    1.276413396279607E-002
  1.610000000000000E-002    1.308983376330979E-002
  1.620000000000000E-002    1.342072340449838E-002
  1.630000000000000E-002    1.375676895158243E-002
  1.640000000000000E-002    1.409792889407744E-002
  1.650000000000000E-002    1.444415763564709E-002
  1.660000000000000E-002    1.479540300977042E-002
  1.670000000000000E-002    1.515160654231817E-002
  1.680000000000000E-002    1.551270465357177E-002
  1.690000000000000E-002    1.587862712851092E-002
  1.700000000000000E-002    1.624929754613785E-002
  1.710000000000000E-002    1.662463211234426E-002
  1.720000000000000E-002    1.700454126390812E-002
  1.730000000000000E-002    1.738892825554642E-002
  1.740000000000000E-002    1.777768979042816E-002
  1.750000000000000E-002    1.817071287774277E-002
  1.760000000000000E-002    1.856788155602872E-002
  1.770000000000000E-002    1.896906804299586E-002
  1.780000000000000E-002    1.937413947282625E-002
  1.790000000000000E-002    1.978295522155764E-002
  1.800000000000000E-002    2.019536608060100E-002
  1.810000000000000E-002    2.061121498420831E-002
  1.820000000000000E-002    2.103033779734855E-002
  1.830000000000000E-002    2.145256172898204E-002
  1.840000000000000E-002    2.187770453029404E-002
  1.850000000000000E-002    2.230557797031985E-002
  1.860000000000000E-002    2.273598461183742E-002
  1.870000000000000E-002    2.316871843820664E-002