 -4.000000000000000E-002    0.000000000000000E+000
 -3.990000000000000E-002    0.000000000000000E+000
 -3.980000000000000E-002    0.000000000000000E+000
 -3.970000000000000E-002    0.000000000000000E+000
 -3.960000000000000E-002    0.000000000000000E+000
 -3.950000000000000E-002    0.000000000000000E+000
 -3.940000000000000E-002    0.000000000000000E+000
 -3.930000000000000E-002    0.000000000000000E+000
 -3.920000000000000E-002    0.000000000000000E+000
 -3.910000000000000E-002    0.000000000000000E+000
 -3.900000000000000E-002    0.000000000000000E+000
 -3.890000000000000E-002    0.000000000000000E+000
 -3.880000000000000E-002    0.000000000000000E+000
 -3.870000000000000E-002    0.000000000000000E+000
 -3.860000000000000E-002    0.000000000000000E+000
 -3.850000000000000E-002    0.000000000000000E+000
 -3.840000000000000E-002    0.000000000000000E+000
 -3.830000000000000E-002    0.000000000000000E+000
 -3.820000000000000E-002    0.000000000000000E+000
 -3.810000000000000E-002    0.000000000000000E+000
 -3.800000000000000E-002    0.000000000000000E+000
 -3.790000000000000E-002    0.000000000000000E+000
 -3.780000000000000E-002    0.000000000000000E+000
 -3.770000000000000E-002    0.000000000000000E+000
 -3.760000000000000E-002    0.000000000000000E+000
 -3.750000000000000E-002    0.000000000000000E+000
 -3.740000000000000E-002    0.000000000000000E+000
 -3.730000000000000E-002    0.000000000000000E+000
 -3.720000000000000E-002    0.000000000000000E+000
 -3.710000000000000E-002    0.000000000000000E+000
 -3.700000000000000E-002    0.000000000000000E+000
 -3.690000000000000E-002    0.000000000000000E+000
 -3.680000000000000E-002    0.000000000000000E+000
 -3.670000000000000E-002    0.000000000000000E+000
 -3.660000000000000E-002    0.000000000000000E+000
 -3.650000000000000E-002    0.000000000000000E+000
 -3.640000000000000E-002    0.000000000000000E+000
 -3.630000000000000E-002    0.000000000000000E+000
 -3.620000000000000E-002    0.000000000000000E+000
 -3.610000000000000E-002    0.000000000000000E+000
 -3.600000000000000E-002    0.000000000000000E+000
 -3.590000000000000E-002    0.000000000000000E+000
 -3.580000000000000E-002    0.000000000000000E+000
 -3.570000000000000E-002    0.000000000000000E+000
 -3.560000000000000E-002    0.000000000000000E+000
 -3.550000000000000E-002    0.000000000000000E+000
 -3.540000000000000E-002    0.000000000000000E+000
 -3.530000000000000E-002    0.000000000000000E+000
 -3.520000000000000E-002    0.000000000000000E+000
 -3.510000000000000E-002    0.000000000000000E+000
 -3.500000000000000E-002    0.000000000000000E+000
 -3.490000000000000E-002    0.000000000000000E+000
 -3.480000000000000E-002    0.000000000000000E+000
 -3.470000000000000E-002    0.000000000000000E+000
 -3.460000000000000E-002    0.000000000000000E+000
 -3.450000000000000E-002    0.000000000000000E+000
 -3.440000000000000E-002    0.000000000000000E+000
 -3.430000000000000E-002    0.000000000000000E+000
 -3.420000000000000E-002    0.000000000000000E+000
 -3.410000000000000E-002    0.000000000000000E+000
 -3.400000000000000E-002    0.000000000000000E+000
 -3.390000000000000E-002    0.000000000000000E+000
 -3.380000000000000E-002    0.000000000000000E+000
 -3.370000000000000E-002    0.000000000000000E+000
 -3.360000000000000E-002    0.000000000000000E+000
 -3.350000000000000E-002    0.000000000000000E+000
 -3.340000000000000E-002    0.000000000000000E+000
 -3.330000000000000E-002    0.000000000000000E+000
 -3.320000000000000E-002    0.000000000000000E+000
 -3.310000000000000E-002    0.000000000000000E+000
 -3.300000000000000E-002    0.000000000000000E+000
 -3.290000000000000E-002    0.000000000000000E+000
 -3.280000000000000E-002    0.000000000000000E+000
 -3.270000000000000E-002    0.000000000000000E+000
 -3.260000000000000E-002    0.000000000000000E+000
 -3.250000000000000E-002    0.000000000000000E+000
 -3.240000000000000E-002    0.000000000000000E+000
 -3.230000000000000E-002    0.000000000000000E+000
 -3.220000000000000E-002    0.000000000000000E+000
 -3.210000000000000E-002    0.000000000000000E+000
 -3.200000000000000E-002    0.000000000000000E+000
 -3.190000000000000E-002    0.000000000000000E+000
 -3.180000000000000E-002    0.000000000000000E+000
 -3.170000000000000E-002    0.000000000000000E+000
 -3.160000000000000E-002    0.000000000000000E+000
 -3.150000000000000E-002    0.000000000000000E+000
 -3.140000000000000E-002    0.000000000000000E+000
 -3.130000000000000E-002    0.000000000000000E+000
 -3.120000000000000E-002    0.000000000000000E+000
 -3.110000000000000E-002    0.000000000000000E+000
 -3.100000000000000E-002    0.000000000000000E+000
 -3.090000000000000E-002    0.000000000000000E+000
 -3.080000000000000E-002    0.000000000000000E+000
 -3.070000000000000E-002    0.000000000000000E+000
 -3.060000000000000E-002    0.000000000000000E+000
 -3.050000000000000E-002    0.000000000000000E+000
 -3.040000000000000E-002    0.000000000000000E+000
 -3.030000000000000E-002    0.000000000000000E+000
 -3.020000000000000E-002    0.000000000000000E+000
 -3.010000000000000E-002    0.000000000000000E+000
 -3.000000000000000E-002    0.000000000000000E+000
 -2.990000000000000E-002    0.000000000000000E+000
 -2.980000000000000E-002    0.000000000000000E+000
 -2.970000000000000E-002    0.000000000000000E+000
 -2.960000000000000E-002    0.000000000000000E+000
 -2.950000000000000E-002    0.000000000000000E+000
 -2.940000000000000E-002    0.000000000000000E+000
 -2.930000000000000E-002    0.000000000000000E+000
 -2.920000000000000E-002    0.000000000000000E+000
 -2.910000000000000E-002    0.000000000000000E+000
 -2.900000000000000E-002    0.000000000000000E+000
 -2.890000000000000E-002    0.000000000000000E+000
 -2.880000000000000E-002    0.000000000000000E+000
 -2.870000000000000E-002    0.000000000000000E+000
 -2.860000000000000E-002    0.000000000000000E+000
 -2.850000000000000E-002    0.000000000000000E+000
 -2.840000000000000E-002    0.000000000000000E+000
 -2.830000000000000E-002    0.000000000000000E+000
 -2.820000000000000E-002    0.000000000000000E+000
 -2.810000000000000E-002    0.000000000000000E+000
 -2.800000000000000E-002    0.000000000000000E+000
 -2.790000000000000E-002    0.000000000000000E+000
 -2.780000000000000E-002    0.000000000000000E+000
 -2.770000000000000E-002    0.000000000000000E+000
 -2.760000000000000E-002    0.000000000000000E+000
 -2.750000000000000E-002    0.000000000000000E+000
 -2.740000000000000E-002    0.000000000000000E+000
 -2.730000000000000E-002    0.000000000000000E+000
 -2.720000000000000E-002    0.000000000000000E+000
 -2.710000000000000E-002    0.000000000000000E+000
 -2.700000000000000E-002    0.000000000000000E+000
 -2.690000000000000E-002    0.000000000000000E+000
 -2.680000000000000E-002    0.000000000000000E+000
 -2.670000000000000E-002    0.000000000000000E+000
 -2.660000000000000E-002    0.000000000000000E+000
 -2.650000000000000E-002    0.000000000000000E+000
 -2.640000000000000E-002    0.000000000000000E+000
 -2.630000000000000E-002    0.000000000000000E+000
 -2.620000000000000E-002    0.000000000000000E+000
 -2.610000000000000E-002    0.000000000000000E+000
 -2.600000000000000E-002    0.000000000000000E+000
 -2.590000000000000E-002    0.000000000000000E+000
 -2.580000000000000E-002    0.000000000000000E+000
 -2.570000000000000E-002    0.000000000000000E+000
 -2.560000000000000E-002    0.000000000000000E+000
 -2.550000000000000E-002    0.000000000000000E+000
 -2.540000000000000E-002    0.000000000000000E+000
 -2.530000000000000E-002    0.000000000000000E+000
 -2.520000000000000E-002    0.000000000000000E+000
 -2.510000000000000E-002    0.000000000000000E+000
 -2.500000000000000E-002    0.000000000000000E+000
 -2.490000000000000E-002    0.000000000000000E+000
 -2.480000000000000E-002    0.000000000000000E+000
 -2.470000000000000E-002    0.000000000000000E+000
 -2.460000000000000E-002    0.000000000000000E+000
 -2.450000000000000E-002    0.000000000000000E+000
 -2.440000000000000E-002    0.000000000000000E+000
 -2.430000000000000E-002    0.000000000000000E+000
 -2.420000000000000E-002    0.000000000000000E+000
 -2.410000000000000E-002    0.000000000000000E+000
 -2.400000000000000E-002    0.000000000000000E+000
 -2.390000000000000E-002    0.000000000000000E+000
 -2.380000000000000E-002    0.000000000000000E+000
 -2.370000000000000E-002    0.000000000000000E+000
 -2.360000000000000E-002    0.000000000000000E+000
 -2.350000000000000E-002    0.000000000000000E+000
 -2.340000000000000E-002    0.000000000000000E+000
 -2.330000000000000E-002    0.000000000000000E+000
 -2.320000000000000E-002    0.000000000000000E+000
 -2.310000000000000E-002    0.000000000000000E+000
 -2.300000000000000E-002    0.000000000000000E+000
 -2.290000000000000E-002    0.000000000000000E+000
 -2.280000000000000E-002    0.000000000000000E+000
 -2.270000000000000E-002    0.000000000000000E+000
 -2.260000000000000E-002    0.000000000000000E+000
 -2.250000000000000E-002    0.000000000000000E+000
 -2.240000000000000E-002    0.000000000000000E+000
 -2.230000000000000E-002    0.000000000000000E+000
 -2.220000000000000E-002    0.000000000000000E+000
 -2.210000000000000E-002   -6.414635304221270E-048
 -2.200000000000000E-002   -1.282927060844254E-047
 -2.190000000000000E-002   -1.924390591266381E-047
 -2.180000000000000E-002   -4.510265978388825E-047
 -2.170000000000000E-002   -7.096141365511269E-047
 -2.160000000000000E-002   -9.040553222211587E-047
 -2.150000000000000E-002   -1.034350154848978E-046
 -2.140000000000000E-002   -1.294939820104616E-046
 -2.130000000000000E-002   -1.681820064901286E-046
 -2.120000000000000E-002   -1.392358015472184E-046
 -2.110000000000000E-002    9.281330431776264E-047
 -2.100000000000000E-002    3.894091885336351E-046
 -2.090000000000000E-002    1.026287209490748E-045
 -2.080000000000000E-002    1.798473209799527E-045
 -2.070000000000000E-002    2.835221438309581E-045
 -2.060000000000000E-002    3.959287747970066E-045
 -2.050000000000000E-002    5.168400451910014E-045
 -2.040000000000000E-002    6.142843766868204E-045
 -2.030000000000000E-002    5.879950732832424E-045
 -2.020000000000000E-002    4.682674074826557E-045
 -2.010000000000000E-002    1.919828592498591E-045
 -2.000000000000000E-002   -2.539133105426074E-045
 -1.990000000000000E-002   -9.951940208882448E-045
 -1.980000000000000E-002   -2.072038988828976E-044
 -1.970000000000000E-002   -3.419802582858917E-044
 -1.960000000000000E-002   -4.994890487081083E-044
 -1.950000000000000E-002   -6.759758164049893E-044
 -1.940000000000000E-002   -8.485983900354902E-044
 -1.930000000000000E-002   -9.990427946003329E-044
 -1.920000000000000E-002   -1.061543076051347E-043
 -1.910000000000000E-002   -1.005101118152023E-043
 -1.900000000000000E-002   -7.526619626577103E-044
 -1.890000000000000E-002   -2.407792523366057E-044
 -1.880000000000000E-002    6.079984584686104E-044
 -1.870000000000000E-002    1.845654847877577E-043
 -1.860000000000000E-002    3.504970112321807E-043
 -1.850000000000000E-002    5.559646747613660E-043
 -1.840000000000000E-002    7.913991287774223E-043
 -1.830000000000000E-002    1.038258161691935E-042
 -1.820000000000000E-002    1.266060710674165E-042
 -1.810000000000000E-002    1.429743975256430E-042
 -1.800000000000000E-002    1.470546668613888E-042
 -1.790000000000000E-002    1.316699585483587E-042
 -1.780000000000000E-002    8.879642908541738E-043
 -1.770000000000000E-002    1.007445729082641E-043
 -1.760000000000000E-002   -1.119145488339865E-042
 -1.750000000000000E-002   -2.821117320522204E-042
 -1.740000000000000E-002   -5.008569790284410E-042
 -1.730000000000000E-002   -7.622801698054304E-042
 -1.720000000000000E-002   -1.050801611500844E-041
 -1.710000000000000E-002   -1.339880341513529E-041
 -1.700000000000000E-002   -1.589449800229575E-041
 -1.690000000000000E-002   -1.745255385401008E-041
 -1.680000000000000E-002   -1.739663772232422E-041
 -1.670000000000000E-002   -1.494656950907113E-041
 -1.660000000000000E-002   -9.272158651536810E-042
 -1.650000000000000E-002    4.156047055240040E-043
 -1.640000000000000E-002    1.474337409116028E-041
 -1.630000000000000E-002    3.401751076761615E-041
 -1.620000000000000E-002    5.804283809313638E-041
 -1.610000000000000E-002    8.592612207606960E-041
 -1.600000000000000E-002    1.158838281663088E-040
 -1.590000000000000E-002    1.450847246754345E-040
 -1.580000000000000E-002    1.695472675390816E-040
 -1.570000000000000E-002    1.841411882648047E-040
 -1.560000000000000E-002    1.827206722649362E-040
 -1.550000000000000E-002    1.584193638768117E-040
 -1.540000000000000E-002    1.041471064565176E-040
 -1.530000000000000E-002    1.329073610629449E-041
 -1.520000000000000E-002   -1.193763995829356E-040
 -1.510000000000000E-002   -2.965898597135912E-040
 -1.500000000000000E-002   -5.173443339112175E-040
 -1.490000000000000E-002   -7.755490758609335E-040
 -1.480000000000000E-002   -1.058671347739859E-039
 -1.470000000000000E-002   -1.346480038086745E-039
 -1.460000000000000E-002   -1.609990322417336E-039
 -1.450000000000000E-002   -1.810769239699880E-039
 -1.440000000000000E-002   -1.900758674868506E-039
 -1.430000000000000E-002   -1.822837198216244E-039
 -1.420000000000000E-002   -1.512364896973725E-039
 -1.410000000000000E-002   -9.000550240205641E-040
 -1.400000000000000E-002    8.343261623736779E-041
 -1.390000000000000E-002    1.500677521995601E-039
 -1.380000000000000E-002    3.397931272271033E-039
 -1.370000000000000E-002    5.792258694409905E-039
 -1.360000000000000E-002    8.654986524227162E-039
 -1.350000000000000E-002    1.189137663387769E-038
 -1.340000000000000E-002    1.531698509729833E-038
 -1.330000000000000E-002    1.863207356839173E-038
 -1.320000000000000E-002    2.139667260465282E-038
 -1.310000000000000E-002    2.301045742956010E-038
 -1.300000000000000E-002    2.270346901986930E-038
 -1.290000000000000E-002    1.954559176960558E-038
 -1.280000000000000E-002    1.248440236460691E-038
 -1.270000000000000E-002    4.220023160396530E-040
 -1.260000000000000E-002   -1.765877765378704E-038
 -1.250000000000000E-002   -4.251047104459712E-038
 -1.240000000000000E-002   -7.437565105756784E-038
 -1.230000000000000E-002   -1.126841166841943E-037
 -1.220000000000000E-002   -1.557076616582378E-037
 -1.210000000000000E-002   -2.002018444159762E-037
 -1.200000000000000E-002   -2.410814325138420E-037
 -1.190000000000000E-002   -2.711946942356807E-037
 -1.180000000000000E-002   -2.812795013760896E-037
 -1.170000000000000E-002   -2.601978727450432E-037
 -1.160000000000000E-002   -1.955515090055408E-037
 -1.150000000000000E-002   -7.477462527654583E-038
 -1.140000000000000E-002    1.132234498535299E-037
 -1.130000000000000E-002    3.758380627894918E-037
 -1.120000000000000E-002    7.140127989241152E-037
 -1.110000000000000E-002    1.119082656521382E-036
 -1.100000000000000E-002    1.569469817853528E-036
 -1.090000000000000E-002    2.027618724032559E-036
 -1.080000000000000E-002    2.437696147993470E-036
 -1.070000000000000E-002    2.724708147479888E-036
 -1.060000000000000E-002    2.795779432032533E-036
 -1.050000000000000E-002    2.544372263019265E-036
 -1.040000000000000E-002    1.858165722362720E-036
 -1.030000000000000E-002    6.311376328983374E-037
 -1.020000000000000E-002   -1.219928440708690E-036
 -1.010000000000000E-002   -3.734774989578162E-036
 -1.000000000000000E-002   -6.885753947184384E-036
 -9.899999999999999E-003   -1.055237553015068E-035
 -9.800000000000000E-003   -1.449694720058570E-035
 -9.699999999999999E-003   -1.834486920459827E-035
 -9.599999999999999E-003   -2.157403824111863E-035
 -9.500000000000000E-003   -2.351848253829016E-035
 -9.399999999999999E-003   -2.339165463887374E-035
 -9.299999999999999E-003   -2.033455382574748E-035
 -9.200000000000000E-003   -1.349283768963050E-035
 -9.099999999999999E-003   -2.125153415540898E-036
 -8.999999999999999E-003    1.425808355768905E-035
 -8.900000000000000E-003    3.573035313114368E-035
 -8.799999999999999E-003    6.176917493285875E-035
 -8.699999999999999E-003    9.107679355033480E-035
 -8.600000000000000E-003    1.214238375889219E-034
 -8.499999999999999E-003    1.495446292771841E-034
 -8.399999999999999E-003    1.711179539642388E-034
 -8.300000000000000E-003    1.808699658850269E-034
 -8.199999999999999E-003    1.728356217475349E-034
 -8.100000000000000E-003    1.408098763515290E-034
 -8.000000000000000E-003    7.900867335161829E-035
 -7.899999999999999E-003   -1.705797361766217E-035
 -7.800000000000000E-003   -1.495243001613396E-034
 -7.699999999999999E-003   -3.169743556872991E-034
 -7.599999999999999E-003   -5.132094648427901E-034
 -7.499999999999999E-003   -7.261141673880929E-034
 -7.399999999999999E-003   -9.367989044240586E-034
 -7.299999999999999E-003   -1.119233130053651E-033
 -7.199999999999999E-003   -1.240605365674719E-033
 -7.100000000000000E-003   -1.262648822748174E-033
 -6.999999999999999E-003   -1.144144283085389E-033
 -6.899999999999999E-003   -8.447485085544762E-034
 -6.800000000000000E-003   -3.301889710558356E-034
 -6.699999999999999E-003    4.212858821610709E-034
 -6.599999999999999E-003    1.411510546595641E-033
 -6.499999999999999E-003    2.614601905444378E-033
 -6.399999999999999E-003    3.969552347158999E-033
 -6.299999999999999E-003    5.374265329366744E-033
 -6.199999999999999E-003    6.682299919624944E-033
 -6.100000000000000E-003    7.703728204392420E-033
 -5.999999999999999E-003    8.211534467400511E-033
 -5.899999999999999E-003    7.954831616036964E-033
 -5.800000000000000E-003    6.679808221722394E-033
 -5.699999999999999E-003    4.158724381616226E-033
 -5.599999999999999E-003    2.264005301488930E-034
 -5.499999999999999E-003   -5.177453288201370E-033
 -5.399999999999999E-003   -1.196302837561635E-032
 -5.299999999999999E-003   -1.984668821237244E-032
 -5.199999999999999E-003   -2.831447717528269E-032
 -5.099999999999999E-003   -3.659976961026831E-032
 -4.999999999999999E-003   -4.368274182841704E-032
 -4.899999999999999E-003   -4.831942608210492E-032
 -4.799999999999999E-003   -4.910727961288602E-032
 -4.699999999999999E-003   -4.459231641008353E-032
 -4.599999999999999E-003   -3.341963255486399E-032
 -4.499999999999999E-003   -1.452466387687744E-032
 -4.399999999999999E-003    1.264319815385592E-032
 -4.299999999999999E-003    4.787967452587760E-032
 -4.199999999999999E-003    8.998953876380274E-032
 -4.099999999999999E-003    1.365845150787558E-031
 -3.999999999999999E-003    1.839500535675343E-031
 -3.899999999999999E-003    2.270195361096796E-031
 -3.799999999999999E-003    2.594947869765950E-031
 -3.699999999999999E-003    2.741476656390040E-031
 -3.599999999999999E-003    2.633280582335357E-031
 -3.499999999999999E-003    2.196880356480924E-031
 -3.399999999999999E-003    1.371102844307675E-031
 -3.299999999999999E-003    1.180152647190426E-032
 -3.199999999999999E-003   -1.565197203942953E-031
 -3.099999999999999E-003   -3.634453634833522E-031
 -2.999999999999999E-003   -5.988464020703944E-031
 -2.899999999999999E-003   -8.461510601306023E-031
 -2.799999999999999E-003   -1.082112344036007E-030
 -2.699999999999999E-003   -1.277245910404541E-030
 -2.599999999999999E-003   -1.397100558424160E-030
 -2.499999999999999E-003   -1.404480491148251E-030
 -2.399999999999999E-003   -1.262668923057020E-030
 -2.299999999999999E-003   -9.396062467091057E-031
 -2.199999999999999E-003   -4.128538617344177E-031
 -2.099999999999999E-003    3.249619115499755E-031
 -1.999999999999999E-003    1.260679390164015E-030
 -1.899999999999999E-003    2.355699351489051E-030
 -1.799999999999999E-003    3.542357808823191E-030
 -1.699999999999999E-003    4.722357834808213E-030
 -1.599999999999999E-003    5.768048563074958E-030
 -1.499999999999999E-003    6.527262761851567E-030
 -1.399999999999999E-003    6.832247262588991E-030
 -1.299999999999999E-003    6.512929899507998E-030
 -1.199999999999999E-003    5.414367335132444E-030
 -1.099999999999999E-003    3.417724790604856E-030
 -9.999999999999989E-004    4.635588313690448E-031
 -8.999999999999990E-004   -3.424417763530692E-030
 -7.999999999999990E-004   -8.117492019247269E-030
 -6.999999999999989E-004   -1.336490649341327E-029
 -5.999999999999990E-004   -1.878480564732639E-029
 -4.999999999999989E-004   -2.386640417714818E-029
 -3.999999999999989E-004   -2.798633840696168E-029
 -2.999999999999989E-004   -3.044147420023600E-029
 -1.999999999999989E-004   -3.049934444965136E-029
 -9.999999999999892E-005   -2.746585196771169E-029
  1.084202172485504E-018   -2.076794320275975E-029
  1.000000000000011E-004   -1.004678071774538E-029
  2.000000000000011E-004    4.745433446384667E-030
  3.000000000000011E-004    2.325403003704230E-029
  4.000000000000011E-004    4.464680360758280E-029
  5.000000000000011E-004    6.756755449448417E-029
  6.000000000000011E-004    9.013073077394284E-029
  7.000000000000011E-004    1.099688703572062E-028
  8.000000000000011E-004    1.243420653146814E-028
  9.000000000000012E-004    1.303148422464759E-028
  1.000000000000001E-003    1.250002160237314E-028
  1.100000000000001E-003    1.058638157447297E-028
  1.200000000000001E-003    7.107291473763096E-029
  1.300000000000001E-003    1.986661721784258E-029
  1.400000000000001E-003   -4.708476714269697E-029
  1.500000000000001E-003   -1.273703623567044E-028
  1.600000000000001E-003   -2.166235595976240E-028
  1.700000000000001E-003   -3.084469308750119E-028
  1.800000000000001E-003   -3.945206433731542E-028
  1.900000000000001E-003   -4.649302366778344E-028
  2.000000000000001E-003   -5.087366655252386E-028
  2.100000000000001E-003   -5.147928355495522E-028
  2.200000000000001E-003   -4.727869982561409E-028
  2.300000000000001E-003   -3.744662967051506E-028
  2.400000000000001E-003   -2.149635777019231E-028
  2.500000000000001E-003    5.878344596617987E-030
  2.600000000000001E-003    2.823161015039408E-028
  2.700000000000001E-003    6.017997304389585E-028
  2.800000000000001E-003    9.445093223715351E-028
  2.900000000000001E-003    1.283487530752498E-027
  3.000000000000001E-003    1.585499348130648E-027
  3.100000000000001E-003    1.812709770363850E-027
  3.200000000000001E-003    1.925211310138819E-027
  3.300000000000001E-003    1.884357807883138E-027
  3.400000000000001E-003    1.656771728430696E-027
  3.500000000000001E-003    1.218794153944759E-027
  3.600000000000001E-003    5.610505976410508E-028
  3.700000000000001E-003   -3.072805320755456E-028
  3.800000000000001E-003   -1.354981009019222E-027
  3.900000000000001E-003   -2.526599654303239E-027
  4.000000000000001E-003   -3.742066181656212E-027
  4.100000000000001E-003   -4.898558003842336E-027
  4.200000000000001E-003   -5.874959950087039E-027
  4.300000000000001E-003   -6.539070696322313E-027
  4.400000000000001E-003   -6.757494873004640E-027
  4.500000000000001E-003   -6.407874544656759E-027
  4.600000000000002E-003   -5.392823290109031E-027
  4.700000000000001E-003   -3.654613947299782E-027
  4.800000000000001E-003   -1.189397869633403E-027
  4.900000000000002E-003    1.940490983798308E-027
  5.000000000000001E-003    5.597731257200625E-027
  5.100000000000001E-003    9.566291096236326E-027
  5.200000000000001E-003    1.355423718882175E-026
  5.300000000000002E-003    1.720421591629533E-026
  5.400000000000001E-003    2.011225319076500E-026
  5.500000000000001E-003    2.185488532632112E-026
  5.600000000000002E-003    2.202384399877194E-026
  5.700000000000001E-003    2.026663716101709E-026
  5.800000000000001E-003    1.633049016043618E-026
  5.900000000000002E-003    1.010624714906311E-026
  6.000000000000001E-003    1.668169185275493E-027
  6.100000000000001E-003   -8.694910585680357E-027
  6.200000000000002E-003   -2.046170172122011E-026
  6.300000000000002E-003   -3.287816581653928E-026
  6.400000000000001E-003   -4.497839014319055E-026
  6.500000000000001E-003   -5.562893085219622E-026
  6.600000000000002E-003   -6.359718305967910E-026
  6.700000000000001E-003   -6.764226070939439E-026
  6.800000000000001E-003   -6.662447765101725E-026
  6.900000000000002E-003   -5.962704874223848E-026
  7.000000000000001E-003   -4.608122300256454E-026
  7.100000000000001E-003   -2.588424144174214E-026
  7.200000000000002E-003    5.021071832616876E-028
  7.300000000000002E-003    3.198478753270850E-026
  7.400000000000001E-003    6.681677835124390E-026
  7.500000000000001E-003    1.026284740040758E-025
  7.600000000000002E-003    1.365203614884322E-025
  7.700000000000001E-003    1.652198824009637E-025
  7.800000000000001E-003    1.853000362013201E-025
  7.900000000000001E-003    1.934512048266210E-025
  8.000000000000002E-003    1.867913652573807E-025
  8.100000000000001E-003    1.631937998149560E-025
  8.200000000000001E-003    1.216061202640836E-025
  8.300000000000002E-003    6.233063740318601E-026
  8.400000000000001E-003   -1.276549349154270E-026
  8.500000000000002E-003   -1.001409676016303E-025
  8.600000000000002E-003   -1.945986789859317E-025
  8.700000000000001E-003   -2.894515485273050E-025
  8.800000000000002E-003   -3.768455537674477E-025
  8.900000000000002E-003   -4.482375900733692E-025
  9.000000000000001E-003   -4.950110590343263E-025
  9.100000000000002E-003   -5.091975714232764E-025
  9.200000000000002E-003   -4.842583302480927E-025
  9.300000000000001E-003   -4.158660960583479E-025
  9.400000000000002E-003   -3.026200246822636E-025
  9.500000000000001E-003   -1.466201228493905E-025
  9.600000000000001E-003    4.616950876820413E-026
  9.700000000000002E-003    2.658320816807625E-025
  9.800000000000001E-003    4.987325642170316E-025
  9.900000000000001E-003    7.281022128887978E-025
  1.000000000000000E-002    9.349731615240813E-025
  1.010000000000000E-002    1.099432395282035E-024
  1.020000000000000E-002    1.202132048498645E-024
  1.030000000000000E-002    1.225961603163313E-024
  1.040000000000000E-002    1.157761188454535E-024
  1.050000000000000E-002    9.899345347591773E-025
  1.060000000000000E-002    7.218112842592731E-025
  1.070000000000000E-002    3.606097303167647E-025
  1.080000000000000E-002   -7.813136240362037E-026
  1.090000000000000E-002   -5.707548359317396E-025
  1.100000000000000E-002   -1.086380916201983E-024
  1.110000000000000E-002   -1.588502165365704E-024
  1.120000000000000E-002   -2.037225057660310E-024
  1.130000000000000E-002   -2.392042245658696E-024
  1.140000000000000E-002   -2.614959554345910E-024
  1.150000000000000E-002   -2.673755348496686E-024
  1.160000000000000E-002   -2.545111483263027E-024
  1.170000000000000E-002   -2.217342800737338E-024
  1.180000000000000E-002   -1.692457177644815E-024
  1.190000000000000E-002   -9.873153904592189E-025
  1.200000000000000E-002   -1.337108957354938E-025
  1.210000000000000E-002    8.227234332920842E-025
  1.220000000000000E-002    1.824789328863825E-024
  1.230000000000000E-002    2.807074126718446E-024
  1.240000000000000E-002    3.700179750408957E-024
  1.250000000000000E-002    4.435534646914396E-024
  1.260000000000000E-002    4.950424190553673E-024
  1.270000000000000E-002    5.192834713338072E-024
  1.280000000000000E-002    5.125698308392042E-024
  1.290000000000000E-002    4.730164003808544E-024
  1.300000000000000E-002    4.007586319518801E-024
  1.310000000000000E-002    2.980037154258456E-024
  1.320000000000000E-002    1.689278124360497E-024
  1.330000000000000E-002    1.942748274323712E-025
  1.340000000000000E-002   -1.432516851961791E-024
  1.350000000000000E-002   -3.109734709371491E-024
  1.360000000000000E-002   -4.752116087582744E-024
  1.370000000000000E-002   -6.275427398527407E-024
  1.380000000000000E-002   -7.600834522628948E-024
  1.390000000000000E-002   -8.658299962849286E-024
  1.400000000000000E-002   -9.388721925326082E-024
  1.410000000000000E-002   -9.744718449572841E-024
  1.420000000000000E-002   -9.690149924921200E-024
  1.430000000000000E-002   -9.198704460390431E-024
  1.440000000000000E-002   -8.252045454713592E-024
  1.450000000000000E-002   -6.838171414158693E-024
  1.460000000000000E-002   -4.950692846887699E-024
  1.470000000000000E-002   -2.589689066326741E-024
  1.480000000000000E-002    2.353342255086797E-025
  1.490000000000000E-002    3.500144949708435E-024
  1.500000000000000E-002    7.158249432611269E-024
  1.510000000000000E-002    1.113166619708600E-023
  1.520000000000000E-002    1.530100719382411E-023
  1.530000000000000E-002    1.949629316629151E-023
  1.540000000000000E-002    2.349026215855855E-023
  1.550000000000000E-002    2.699611974544095E-023
  1.560000000000000E-002    2.967165012903385E-023
  1.570000000000000E-002    3.113134473729873E-023
  1.580000000000000E-002    3.096765176707821E-023
  1.590000000000000E-002    2.878165866176790E-023
  1.600000000000000E-002    2.422247756965558E-023
  1.610000000000000E-002    1.703344042593218E-023
  1.620000000000000E-002    7.101971782564359E-024
  1.630000000000000E-002   -5.491164669376739E-024
  1.640000000000000E-002   -2.042846694354234E-023
  1.650000000000000E-002   -3.712396812999275E-023
  1.660000000000000E-002   -5.470910012722727E-023
  1.670000000000000E-002   -7.204155531677250E-023
  1.680000000000000E-002   -8.774141671567767E-023
  1.690000000000000E-002   -1.002570137691342E-022
  1.700000000000000E-002   -1.079605424918170E-022
  1.710000000000000E-002   -1.092707062419553E-022
  1.720000000000000E-002   -1.027964225351457E-022
  1.730000000000000E-002   -8.749263172951424E-023
  1.740000000000000E-002   -6.281641827019626E-023
  1.750000000000000E-002   -2.886949183174684E-023
  1.760000000000000E-002    1.348812631296700E-023
  1.770000000000000E-002    6.256835070030682E-023
  1.780000000000000E-002    1.158430284959467E-022
  1.790000000000000E-002    1.700006293306367E-022
  1.800000000000000E-002    2.210781534757456E-022
  1.810000000000000E-002    2.646694704516257E-022
  1.820000000000000E-002    2.962045341313293E-022
  1.830000000000000E-002    3.112871430427130E-022
  1.840000000000000E-002    3.060720198886457E-022
  1.850000000000000E-002    2.776557077367029E-022
  1.860000000000000E-002    2.244511025763285E-022
  1.870000000000000E-002    1.465124473281500E-022