 -4.000000000000000E-002    0.000000000000000E+000
 -3.990000000000000E-002    0.000000000000000E+000
 -3.980000000000000E-002    0.000000000000000E+000
 -3.970000000000000E-002    0.000000000000000E+000
 -3.960000000000000E-002    0.000000000000000E+000
 -3.950000000000000E-002    0.000000000000000E+000
 -3.940000000000000E-002    0.000000000000000E+000
 -3.930000000000000E-002    0.000000000000000E+000
 -3.920000000000000E-002    0.000000000000000E+000
 -3.910000000000000E-002    0.000000000000000E+000
 -3.900000000000000E-002    0.000000000000000E+000
 -3.890000000000000E-002    0.000000000000000E+000
 -3.880000000000000E-002    0.000000000000000E+000
 -3.870000000000000E-002    4.201708921559430E-040
 -3.860000000000000E-002    1.016414686103879E-038
 -3.850000000000000E-002    1.261737542158994E-037
 -3.840000000000000E-002    1.069407942054844E-036
 -3.830000000000000E-002    6.947785832677207E-036
 -3.820000000000000E-002    3.682989070624324E-035
 -3.810000000000000E-002    1.655758705091947E-034
 -3.800000000000000E-002    6.478467375779066E-034
 -3.790000000000000E-002    2.246365781249191E-033
 -3.780000000000000E-002    6.992002386145382E-033
 -3.770000000000000E-002    1.971175197455587E-032
 -3.760000000000000E-002    5.062049911514200E-032
 -3.750000000000000E-002    1.187122147937591E-031
 -3.740000000000000E-002    2.539062858837084E-031
 -3.730000000000000E-002    4.918761284410765E-031
 -3.720000000000000E-002    8.481590035385099E-031
 -3.710000000000000E-002    1.247350601465989E-030
 -3.700000000000000E-002    1.371381701301027E-030
 -3.690000000000000E-002    3.857483762214637E-031
 -3.680000000000000E-002   -3.480174877557104E-030
 -3.670000000000000E-002   -1.345784730026961E-029
 -3.660000000000000E-002   -3.468464143196906E-029
 -3.650000000000000E-002   -7.413503322915273E-029
 -3.640000000000000E-002   -1.392488925411820E-028
 -3.630000000000000E-002   -2.340713782413285E-028
 -3.620000000000000E-002   -3.514487822517250E-028
 -3.610000000000000E-002   -4.599880969605615E-028
 -3.600000000000000E-002   -4.855312060661609E-028
 -3.590000000000000E-002   -2.893311606598146E-028
 -3.580000000000000E-002    3.506447888670673E-028
 -3.570000000000000E-002    1.742822543386488E-027
 -3.560000000000000E-002    4.250050880178705E-027
 -3.550000000000000E-002    8.197082137867411E-027
 -3.540000000000000E-002    1.369062560166340E-026
 -3.530000000000000E-002    2.033313535318880E-026
 -3.520000000000000E-002    2.683445659666863E-026
 -3.510000000000000E-002    3.056767277060693E-026
 -3.500000000000000E-002    2.717783717444036E-026
 -3.490000000000000E-002    1.042872990146426E-026
 -3.480000000000000E-002   -2.745197929936975E-026
 -3.470000000000000E-002   -9.462112319520508E-026
 -3.460000000000000E-002   -1.973701145058604E-025
 -3.450000000000000E-002   -3.366046628425490E-025
 -3.440000000000000E-002   -5.031398243407866E-025
 -3.430000000000000E-002   -6.723035368179133E-025
 -3.420000000000000E-002   -7.988758802558918E-025
 -3.410000000000000E-002   -8.139725054767513E-025
 -3.400000000000000E-002   -6.259790741407872E-025
 -3.390000000000000E-002   -1.278739830733444E-025
 -3.380000000000000E-002    7.869620674165799E-025
 -3.370000000000000E-002    2.199232599766739E-024
 -3.360000000000000E-002    4.128903230248164E-024
 -3.350000000000000E-002    6.493749839054436E-024
 -3.340000000000000E-002    9.066648652474093E-024
 -3.330000000000000E-002    1.143964873801335E-023
 -3.320000000000000E-002    1.300490595133261E-023
 -3.310000000000000E-002    1.296338251353924E-023
 -3.300000000000000E-002    1.037132019634056E-023
 -3.290000000000000E-002    4.231760975816918E-024
 -3.280000000000000E-002   -6.365958528647022E-024
 -3.270000000000000E-002   -2.206108272380597E-023
 -3.260000000000000E-002   -4.299822230701482E-023
 -3.250000000000000E-002   -6.857798901088599E-023
 -3.240000000000000E-002   -9.719663507684568E-023
 -3.230000000000000E-002   -1.259928320212059E-022
 -3.220000000000000E-002   -1.506245745243506E-022
 -3.210000000000000E-002   -1.651090217702465E-022
 -3.200000000000000E-002   -1.617766783466672E-022
 -3.190000000000000E-002   -1.314203324271093E-022
 -3.180000000000000E-002   -6.375731102011085E-023
 -3.170000000000000E-002    5.163716945591952E-023
 -3.160000000000000E-002    2.237420591861505E-022
 -3.150000000000000E-002    4.576762860083416E-022
 -3.140000000000000E-002    7.513626575505649E-022
 -3.130000000000000E-002    1.091342089243392E-021
 -3.120000000000000E-002    1.448086044613982E-021
 -3.110000000000000E-002    1.771531880318331E-021
 -3.100000000000000E-002    1.988004104154298E-021
 -3.090000000000000E-002    2.000103527787257E-021
 -3.080000000000000E-002    1.691419591454894E-021
 -3.070000000000000E-002    9.378998630142770E-022
 -3.060000000000000E-002   -3.727706391094483E-022
 -3.050000000000000E-002   -2.313485871252052E-021
 -3.040000000000000E-002   -4.883116561310012E-021
 -3.030000000000000E-002   -7.968584253166792E-021
 -3.020000000000000E-002   -1.130967644956347E-020
 -3.010000000000000E-002   -1.447496617742415E-020
 -3.000000000000000E-002   -1.685872622353808E-020
 -2.990000000000000E-002   -1.770880222276156E-020
 -2.980000000000000E-002   -1.619346517599071E-020
 -2.970000000000000E-002   -1.151084833802157E-020
 -2.960000000000000E-002   -3.037735221244481E-021
 -2.950000000000000E-002    9.494286826971385E-021
 -2.940000000000000E-002    2.581683164206230E-020
 -2.930000000000000E-002    4.496703738190647E-020
 -2.920000000000000E-002    6.519005491407864E-020
 -2.910000000000000E-002    8.393822013470528E-020
 -2.900000000000000E-002    9.799738262886429E-020
 -2.890000000000000E-002    1.037574833530677E-019
 -2.880000000000000E-002    9.762408146976444E-020
 -2.870000000000000E-002    7.654255649234779E-020
 -2.860000000000000E-002    3.858063516022008E-020
 -2.850000000000000E-002   -1.650735130169274E-020
 -2.840000000000000E-002   -8.682433837030648E-020
 -2.830000000000000E-002   -1.680721474854373E-019
 -2.820000000000000E-002   -2.535641454489836E-019
 -2.810000000000000E-002   -3.345496217586270E-019
 -2.800000000000000E-002   -4.008462117289533E-019
 -2.790000000000000E-002   -4.417267577294515E-019
 -2.780000000000000E-002   -4.469621051351204E-019
 -2.770000000000000E-002   -4.078915058709247E-019
 -2.760000000000000E-002   -3.183868526921886E-019
 -2.750000000000000E-002   -1.756009713304030E-019
 -2.740000000000000E-002    1.955831062904755E-020
 -2.730000000000000E-002    2.622154338104385E-019
 -2.720000000000000E-002    5.434904055279874E-019
 -2.710000000000000E-002    8.504975765139909E-019
 -2.700000000000000E-002    1.166226580576747E-018
 -2.690000000000000E-002    1.469196148601737E-018
 -2.680000000000000E-002    1.732882957993892E-018
 -2.670000000000000E-002    1.925092584709757E-018
 -2.660000000000000E-002    2.007634787710742E-018
 -2.650000000000000E-002    1.936844384471269E-018
 -2.640000000000000E-002    1.665594435853258E-018
 -2.630000000000000E-002    1.147423244392682E-018
 -2.620000000000000E-002    3.431942449752939E-019
 -2.610000000000000E-002   -7.696892562008922E-019
 -2.600000000000000E-002   -2.186072837878724E-018
 -2.590000000000000E-002   -3.861083573280367E-018
 -2.580000000000000E-002   -5.699342013033945E-018
 -2.570000000000000E-002   -7.547823035222905E-018
 -2.560000000000000E-002   -9.195076426820917E-018
 -2.550000000000000E-002   -1.037930614810129E-017
 -2.540000000000000E-002   -1.080706130063802E-017
 -2.530000000000000E-002   -1.018299777459237E-017
 -2.520000000000000E-002   -8.249426181032705E-018
 -2.510000000000000E-002   -4.832384979932561E-018
 -2.500000000000000E-002    1.109607656271619E-019
 -2.490000000000000E-002    6.450310130160298E-018
 -2.480000000000000E-002    1.385306087225588E-017
 -2.470000000000000E-002    2.177513532379264E-017
 -2.460000000000000E-002    2.947743274411246E-017
 -2.450000000000000E-002    3.607083243576329E-017
 -2.440000000000000E-002    4.058908249179433E-017
 -2.430000000000000E-002    4.208478868155247E-017
 -2.420000000000000E-002    3.973980636054350E-017
 -2.410000000000000E-002    3.297817730321072E-017
 -2.400000000000000E-002    2.156801758875680E-017
 -2.390000000000000E-002    5.698896960496921E-018
 -2.380000000000000E-002   -1.397667795927394E-017
 -2.370000000000000E-002   -3.634511167157272E-017
 -2.360000000000000E-002   -5.987917592271892E-017
 -2.350000000000000E-002   -8.272774633490582E-017
 -2.340000000000000E-002   -1.028393577619247E-016
 -2.330000000000000E-002   -1.181074041954501E-016
 -2.320000000000000E-002   -1.265233332960303E-016
 -2.310000000000000E-002   -1.263249693671923E-016
 -2.300000000000000E-002   -1.161303223872091E-016
 -2.290000000000000E-002   -9.505168160525005E-017
 -2.280000000000000E-002   -6.278991573881414E-017
 -2.270000000000000E-002   -1.971269506884010E-017
 -2.260000000000000E-002    3.307788117766775E-017
 -2.250000000000000E-002    9.368438153479474E-017
 -2.240000000000000E-002    1.593608229387742E-016
 -2.230000000000000E-002    2.264760493829275E-016
 -2.220000000000000E-002    2.905116500035306E-016
 -2.210000000000000E-002    3.461208129249767E-016
 -2.200000000000000E-002    3.872795550037974E-016
 -2.190000000000000E-002    4.075611511676235E-016
 -2.180000000000000E-002    4.005565603092245E-016
 -2.170000000000000E-002    3.604474846594556E-016
 -2.160000000000000E-002    2.827151581907206E-016
 -2.150000000000000E-002    1.649399728027588E-016
 -2.140000000000000E-002    7.618305704661761E-018
 -2.130000000000000E-002   -1.851030866654816E-016
 -2.120000000000000E-002   -4.048894482355698E-016
 -2.110000000000000E-002   -6.389951526441965E-016
 -2.100000000000000E-002   -8.704594893314999E-016
 -2.090000000000000E-002   -1.078793520460042E-015
 -2.080000000000000E-002   -1.241185182702824E-015
 -2.070000000000000E-002   -1.334190335905851E-015
 -2.060000000000000E-002   -1.335818365119462E-015
 -2.050000000000000E-002   -1.227857673899102E-015
 -2.040000000000000E-002   -9.982426315469522E-016
 -2.030000000000000E-002   -6.432299440701292E-016
 -2.020000000000000E-002   -1.691456203513780E-016
 -2.010000000000000E-002    4.065181651306436E-016
 -2.000000000000000E-002    1.054836420610712E-015
 -1.990000000000000E-002    1.736135321979249E-015
 -1.980000000000000E-002    2.401668665022778E-015
 -1.970000000000000E-002    2.996250047993097E-015
 -1.960000000000000E-002    3.461722359980240E-015
 -1.950000000000000E-002    3.741075094817176E-015
 -1.940000000000000E-002    3.782958332074302E-015
 -1.930000000000000E-002    3.546304792551671E-015
 -1.920000000000000E-002    3.004743652014366E-015
 -1.910000000000000E-002    2.150485789108757E-015
 -1.900000000000000E-002    9.973722625115661E-016
 -1.890000000000000E-002   -4.171950273935584E-016
 -1.880000000000000E-002   -2.031680944649002E-015
 -1.870000000000000E-002   -3.761383220807141E-015
 -1.860000000000000E-002   -5.501053256400989E-015
 -1.850000000000000E-002   -7.129197843098790E-015
 -1.840000000000000E-002   -8.513998779809568E-015
 -1.830000000000000E-002   -9.520681425545751E-015
 -1.820000000000000E-002   -1.002006104452593E-014
 -1.810000000000000E-002   -9.897890747505393E-015
 -1.800000000000000E-002   -9.064541882450337E-015
 -1.790000000000000E-002   -7.464476767275949E-015
 -1.780000000000000E-002   -5.084923487427132E-015
 -1.770000000000000E-002   -1.963137974782690E-015
 -1.760000000000000E-002    1.808355464093173E-015
 -1.750000000000000E-002    6.079120903597486E-015
 -1.740000000000000E-002    1.064128092527861E-014
 -1.730000000000000E-002    1.523356031418522E-014
 -1.720000000000000E-002    1.954923826551856E-014
 -1.710000000000000E-002    2.324824517749094E-014
 -1.700000000000000E-002    2.597348934772841E-014
 -1.690000000000000E-002    2.737128049696075E-014
 -1.680000000000000E-002    2.711544949003207E-014
 -1.670000000000000E-002    2.493445388130185E-014
 -1.660000000000000E-002    2.064032145293687E-014
 -1.650000000000000E-002    1.415780548220182E-014
 -1.640000000000000E-002    5.551669036095361E-015
 -1.630000000000000E-002   -4.950497188533092E-015
 -1.620000000000000E-002   -1.694281612973426E-014
 -1.610000000000000E-002   -2.983608050632437E-014
 -1.600000000000000E-002   -4.286603517823675E-014
 -1.590000000000000E-002   -5.511730530970149E-014
 -1.580000000000000E-002   -6.556448451470183E-014
 -1.570000000000000E-002   -7.313041411526471E-014
 -1.560000000000000E-002   -7.676011688562576E-014
 -1.550000000000000E-002   -7.550694646108491E-014
 -1.540000000000000E-002   -6.862567047185155E-014
 -1.530000000000000E-002   -5.566550950753415E-014
 -1.520000000000000E-002   -3.655494648618150E-014
 -1.510000000000000E-002   -1.166971108878877E-014
 -1.500000000000000E-002    1.812464417463595E-014
 -1.490000000000000E-002    5.146273142384281E-014
 -1.480000000000000E-002    8.650714660223383E-014
 -1.470000000000000E-002    1.210166735963117E-013
 -1.460000000000000E-002    1.524541874061218E-013
 -1.450000000000000E-002    1.781302471659256E-013
 -1.440000000000000E-002    1.953752094088964E-013
 -1.430000000000000E-002    2.017300642984706E-013
 -1.420000000000000E-002    1.951441859623723E-013
 -1.410000000000000E-002    1.741672197334728E-013
 -1.400000000000000E-002    1.381222864219010E-013
 -1.390000000000000E-002    8.724812039333879E-014
 -1.380000000000000E-002    2.279971143574900E-014
 -1.370000000000000E-002   -5.290208991386734E-014
 -1.360000000000000E-002   -1.364785922731247E-013
 -1.350000000000000E-002   -2.235642085285949E-013
 -1.340000000000000E-002   -3.089433774765661E-013
 -1.330000000000000E-002   -3.867543435785409E-013
 -1.320000000000000E-002   -4.507587613300124E-013
 -1.310000000000000E-002   -4.946730462478450E-013
 -1.300000000000000E-002   -5.125539099756000E-013
 -1.290000000000000E-002   -4.992264546850839E-013
 -1.280000000000000E-002   -4.507375708858435E-013
 -1.270000000000000E-002   -3.648113111075984E-013
 -1.260000000000000E-002   -2.412771293227524E-013
 -1.250000000000000E-002   -8.243596981923594E-014
 -1.240000000000000E-002    1.066754557872868E-013
 -1.230000000000000E-002    3.181613243139891E-013
 -1.220000000000000E-002    5.413243562311815E-013
 -1.210000000000000E-002    7.629354162865020E-013
 -1.200000000000000E-002    9.677353716477833E-013
 -1.190000000000000E-002    1.139175793901815E-012
 -1.180000000000000E-002    1.260381873345144E-012
 -1.170000000000000E-002    1.315303645404753E-012
 -1.160000000000000E-002    1.289995346841083E-012
 -1.150000000000000E-002    1.173943929138517E-012
 -1.140000000000000E-002    9.613510288443836E-013
 -1.130000000000000E-002    6.522616837451049E-013
 -1.120000000000000E-002    2.534300711303670E-013
 -1.110000000000000E-002   -2.211806297679095E-013
 -1.100000000000000E-002   -7.503520292532106E-013
 -1.090000000000000E-002   -1.306081241824654E-012
 -1.080000000000000E-002   -1.854600504455154E-012
 -1.070000000000000E-002   -2.357938580233776E-012
 -1.060000000000000E-002   -2.775978207894641E-012
 -1.050000000000000E-002   -3.068924073526730E-012
 -1.040000000000000E-002   -3.200054686452855E-012
 -1.030000000000000E-002   -3.138602550815133E-012
 -1.020000000000000E-002   -2.862582257865969E-012
 -1.010000000000000E-002   -2.361371234310689E-012
 -1.000000000000000E-002   -1.637844016339327E-012
 -9.899999999999999E-003   -7.098714622270009E-013
 -9.800000000000000E-003    3.889822352357359E-013
 -9.699999999999999E-003    1.609699069490948E-012
 -9.599999999999999E-003    2.889075074369331E-012
 -9.500000000000000E-003    4.152051351567907E-012
 -9.399999999999999E-003    5.315080876657191E-012
 -9.299999999999999E-003    6.290444963974382E-012
 -9.200000000000000E-003    6.991355028362582E-012
 -9.099999999999999E-003    7.337614407043625E-012
 -8.999999999999999E-003    7.261554321757162E-012
 -8.900000000000000E-003    6.713908276349864E-012
 -8.799999999999999E-003    5.669242658559478E-012
 -8.699999999999999E-003    4.130562933121063E-012
 -8.600000000000000E-003    2.132690273089447E-012
 -8.499999999999999E-003   -2.559448735717486E-013
 -8.399999999999999E-003   -2.933409119357602E-012
 -8.300000000000000E-003   -5.766512778810537E-012
 -8.199999999999999E-003   -8.595321001053116E-012
 -8.100000000000000E-003   -1.123994357375902E-011
 -8.000000000000000E-003   -1.350947602359472E-011
 -7.899999999999999E-003   -1.521279408964652E-011
 -7.800000000000000E-003   -1.617077337357130E-011
 -7.699999999999999E-003   -1.622932547393642E-011
 -7.599999999999999E-003   -1.527253309956980E-011
 -7.499999999999999E-003   -1.323502542306748E-011
 -7.399999999999999E-003   -1.011269014902201E-011
 -7.299999999999999E-003   -5.970773187665556E-012
 -7.199999999999999E-003   -9.484736794375584E-013
 -7.100000000000000E-003    4.740755178815502E-012
 -6.999999999999999E-003    1.081383684259605E-011
 -6.899999999999999E-003    1.692794550932404E-011
 -6.800000000000000E-003    2.269572008593617E-011
 -6.699999999999999E-003    2.770542959909146E-011
 -6.599999999999999E-003    3.154538558655671E-011
 -6.499999999999999E-003    3.383142179454260E-011
 -6.399999999999999E-003    3.423593238136432E-011
 -6.299999999999999E-003    3.251659484774308E-011
 -6.199999999999999E-003    2.854270655566856E-011
 -6.100000000000000E-003    2.231700546841507E-011
 -5.999999999999999E-003    1.399084554011040E-011
 -5.899999999999999E-003    3.870898874868699E-012
 -5.800000000000000E-003   -7.584008862674407E-012
 -5.699999999999999E-003   -1.977689241494926E-011
 -5.599999999999999E-003   -3.199753412794055E-011
 -5.499999999999999E-003   -4.345778636004422E-011
 -5.399999999999999E-003   -5.333589366785968E-011
 -5.299999999999999E-003   -6.082767756855084E-011
 -5.199999999999999E-003   -6.520176203668777E-011
 -5.099999999999999E-003   -6.585555594910775E-011
 -4.999999999999999E-003   -6.236827895724697E-011
 -4.899999999999999E-003   -5.454727891666718E-011
 -4.799999999999999E-003   -4.246397459936584E-011
 -4.699999999999999E-003   -2.647610671305529E-011
 -4.599999999999999E-003   -7.233603964300828E-012
 -4.499999999999999E-003    1.433392039280343E-011
 -4.399999999999999E-003    3.704903514182512E-011
 -4.299999999999999E-003    5.953764303972646E-011
 -4.199999999999999E-003    8.029820737798207E-011
 -4.099999999999999E-003    9.778654925004739E-011
 -3.999999999999999E-003    1.105127407576238E-010
 -3.899999999999999E-003    1.171451117663546E-010
 -3.799999999999999E-003    1.166157716829369E-010
 -3.699999999999999E-003    1.082209220622620E-010
 -3.599999999999999E-003    9.170887335724877E-011
 -3.499999999999999E-003    6.734842356650557E-011
 -3.399999999999999E-003    3.597053365697327E-011
 -3.299999999999999E-003   -1.022913640777392E-012
 -3.199999999999999E-003   -4.168828499926434E-011
 -3.099999999999999E-003   -8.361015097386272E-011
 -2.999999999999999E-003   -1.240127019517923E-010
 -2.899999999999999E-003   -1.599100431471213E-010
 -2.799999999999999E-003   -1.882900670845679E-010
 -2.699999999999999E-003   -2.063229365483403E-010
 -2.599999999999999E-003   -2.115824371142138E-010
 -2.499999999999999E-003   -2.022660111581677E-010
 -2.399999999999999E-003   -1.773972811705345E-010
 -2.299999999999999E-003   -1.369945336514706E-010
 -2.199999999999999E-003   -8.218873127731411E-011
 -2.099999999999999E-003   -1.527697169464515E-011
 -1.999999999999999E-003    6.030007872100735E-011
 -1.899999999999999E-003    1.400634914389450E-010
 -1.799999999999999E-003    2.186859251107857E-010
 -1.699999999999999E-003    2.902619668307845E-010
 -1.599999999999999E-003    3.486487404767032E-010
 -1.499999999999999E-003    3.878613644456063E-010
 -1.399999999999999E-003    4.025022194226808E-010
 -1.299999999999999E-003    3.881997082876021E-010
 -1.199999999999999E-003    3.420289859396703E-010
 -1.099999999999999E-003    2.628868394268390E-010
 -9.999999999999989E-004    1.517929435589042E-010
 -8.999999999999990E-004    1.209231625630622E-011
 -7.999999999999990E-004   -1.504626374140332E-010
 -6.999999999999989E-004   -3.277666419268355E-010
 -5.999999999999990E-004   -5.095632816862788E-010
 -4.999999999999989E-004   -6.837967684230102E-010
 -3.999999999999989E-004   -8.371095407900735E-010
 -2.999999999999989E-004   -9.554729817789673E-010
 -1.999999999999989E-004   -1.024931378037544E-009
 -9.999999999999892E-005   -1.032430132917459E-009
  1.084202172485504E-018   -9.666933793284206E-010
  1.000000000000011E-004   -8.191089759552141E-010
  2.000000000000011E-004   -5.845744888076840E-010
  3.000000000000011E-004   -2.622536584318944E-010
  4.000000000000011E-004    1.438063285462104E-010
  5.000000000000011E-004    6.242466860109313E-010
  6.000000000000011E-004    1.164201370201085E-009
  7.000000000000011E-004    1.743371173319254E-009
  8.000000000000011E-004    2.336393157190128E-009
  9.000000000000012E-004    2.913516629021457E-009
  1.000000000000001E-003    3.441584656917435E-009
  1.100000000000001E-003    3.885299396677293E-009
  1.200000000000001E-003    4.208736682382867E-009
  1.300000000000001E-003    4.377056960814994E-009
  1.400000000000001E-003    4.358347373300111E-009
  1.500000000000001E-003    4.125521692678599E-009
  1.600000000000001E-003    3.658194719593195E-009
  1.700000000000001E-003    2.944451685766359E-009
  1.800000000000001E-003    1.982431923556604E-009
  1.900000000000001E-003    7.816568252617951E-010
  2.000000000000001E-003   -6.359586520133079E-010
  2.100000000000001E-003   -2.235451339362010E-009
  2.200000000000001E-003   -3.968548637990362E-009
  2.300000000000001E-003   -5.773804947097673E-009
  2.400000000000001E-003   -7.577139050785623E-009
  2.500000000000001E-003   -9.292752714189957E-009
  2.600000000000001E-003   -1.082439032749987E-008
  2.700000000000001E-003   -1.206691537036702E-008
  2.800000000000001E-003   -1.290813042743090E-008
  2.900000000000001E-003   -1.323079907406635E-008
  3.000000000000001E-003   -1.291478931397092E-008
  3.100000000000001E-003   -1.183929027600376E-008
  3.200000000000001E-003   -9.885000430091245E-009
  3.300000000000001E-003   -6.936238691165326E-009
  3.400000000000001E-003   -2.882878823585378E-009
  3.500000000000001E-003    2.377951750206852E-009
  3.600000000000001E-003    8.940479931587589E-009
  3.700000000000001E-003    1.688928923969327E-008
  3.800000000000001E-003    2.629870726465371E-008
  3.900000000000001E-003    3.723271467432479E-008
  4.000000000000001E-003    4.974523649550033E-008
  4.100000000000001E-003    6.388101062834292E-008
  4.200000000000001E-003    7.967678685178440E-008
  4.300000000000001E-003    9.716299650630692E-008
  4.400000000000001E-003    1.163656824287959E-007
  4.500000000000001E-003    1.373086561292608E-007
  4.600000000000002E-003    1.600157662222725E-007
  4.700000000000001E-003    1.845132402211505E-007
  4.800000000000001E-003    2.108318483380830E-007
  4.900000000000002E-003    2.390089860230799E-007
  5.000000000000001E-003    2.690904402276916E-007
  5.100000000000001E-003    3.011318806813912E-007
  5.200000000000001E-003    3.352000149825709E-007
  5.300000000000002E-003    3.713734004808182E-007
  5.400000000000001E-003    4.097428530590475E-007
  5.500000000000001E-003    4.504116665253985E-007
  5.600000000000002E-003    4.934953991552536E-007
  5.700000000000001E-003    5.391215566948645E-007
  5.800000000000001E-003    5.874289295434522E-007
  5.900000000000002E-003    6.385670412057576E-007
  6.000000000000001E-003    6.926953627703974E-007
  6.100000000000001E-003    7.499824664937148E-007
  6.200000000000002E-003    8.106054977284732E-007
  6.300000000000002E-003    8.747495544786852E-007
  6.400000000000001E-003    9.426073636270930E-007
  6.500000000000001E-003    1.014379289674552E-006
  6.600000000000002E-003    1.090273593522511E-006
  6.700000000000001E-003    1.170507445913623E-006
  6.800000000000001E-003    1.255307832614378E-006
  6.900000000000002E-003    1.344913778406685E-006
  7.000000000000001E-003    1.439578384702394E-006
  7.100000000000001E-003    1.539571529132457E-006
  7.200000000000002E-003    1.645183406356666E-006
  7.300000000000002E-003    1.756727504164197E-006
  7.400000000000001E-003    1.874544269911587E-006
  7.500000000000001E-003    1.999004743801674E-006
  7.600000000000002E-003    2.130513022700248E-006
  7.700000000000001E-003    2.269509160356284E-006
  7.800000000000001E-003    2.416470683001263E-006
  7.900000000000001E-003    2.571913564460213E-006
  8.000000000000002E-003    2.736391594225892E-006
  8.100000000000001E-003    2.910495516057570E-006
  8.200000000000001E-003    3.094850457609835E-006
  8.300000000000002E-003    3.290113333077416E-006
  8.400000000000001E-003    3.496967814939714E-006
  8.500000000000002E-003    3.716121925913016E-006
  8.600000000000002E-003    3.948302348319189E-006
  8.700000000000001E-003    4.194251522673950E-006
  8.800000000000002E-003    4.454723731752587E-006
  8.900000000000002E-003    4.730482191898096E-006
  9.000000000000001E-003    5.022300051039910E-006
  9.100000000000002E-003    5.330958143381592E-006
  9.200000000000002E-003    5.657248059177610E-006
  9.300000000000001E-003    6.001976175584002E-006
  9.400000000000002E-003    6.365967933906544E-006
  9.500000000000001E-003    6.750074096908125E-006
  9.600000000000001E-003    7.155179555937903E-006
  9.700000000000002E-003    7.582210362765908E-006
  9.800000000000001E-003    8.032145511698572E-006
  9.900000000000001E-003    8.506024404855521E-006
  1.000000000000000E-002    9.004958447121071E-006
  1.010000000000000E-002    9.530139088208478E-006
  1.020000000000000E-002    1.008284694342406E-005
  1.030000000000000E-002    1.066445885791712E-005
  1.040000000000000E-002    1.127645379217272E-005
  1.050000000000000E-002    1.192041905550894E-005
  1.060000000000000E-002    1.259805018943230E-005
  1.070000000000000E-002    1.331115361465008E-005
  1.080000000000000E-002    1.406164342632265E-005
  1.090000000000000E-002    1.485154115667037E-005
  1.100000000000000E-002    1.568297039531293E-005
  1.110000000000000E-002    1.655814930248124E-005
  1.120000000000000E-002    1.747938694820187E-005
  1.130000000000000E-002    1.844907419483263E-005
  1.140000000000000E-002    1.946967957119927E-005
  1.150000000000000E-002    2.054374091035807E-005
  1.160000000000000E-002    2.167386048305057E-005
  1.170000000000000E-002    2.286270309680194E-005
  1.180000000000000E-002    2.411299591296323E-005
  1.190000000000000E-002    2.542752351472657E-005
  1.200000000000000E-002    2.680913988114492E-005
  1.210000000000000E-002    2.826076967723619E-005
  1.220000000000000E-002    2.978541291929794E-005
  1.230000000000000E-002    3.138616081684122E-005
  1.240000000000000E-002    3.306620735523849E-005
  1.250000000000000E-002    3.482886488632457E-005
  1.260000000000000E-002    3.667757376375495E-005
  1.270000000000000E-002    3.861592503077553E-005
  1.280000000000000E-002    4.064767543555417E-005
  1.290000000000000E-002    4.277675525266169E-005
  1.300000000000000E-002    4.500729735481811E-005
  1.310000000000000E-002    4.734363599401034E-005
  1.320000000000000E-002    4.979032741318150E-005
  1.330000000000000E-002    5.235215223450784E-005
  1.340000000000000E-002    5.503412354724373E-005
  1.350000000000000E-002    5.784149685077034E-005
  1.360000000000000E-002    6.077974830763962E-005
  1.370000000000000E-002    6.385460228336171E-005
  1.380000000000000E-002    6.707200210224913E-005
  1.390000000000000E-002    7.043810868404570E-005
  1.400000000000000E-002    7.395929975630275E-005
  1.410000000000000E-002    7.764215362145212E-005
  1.420000000000000E-002    8.149345016136677E-005
  1.430000000000000E-002    8.552014556913581E-005
  1.440000000000000E-002    8.972939338808514E-005
  1.450000000000000E-002    9.412851496668787E-005
  1.460000000000000E-002    9.872501687295604E-005
  1.470000000000000E-002    1.035265898448383E-004
  1.480000000000000E-002    1.085411296472469E-004
  1.490000000000000E-002    1.137767363202665E-004
  1.500000000000000E-002    1.192417280765477E-004
  1.510000000000000E-002    1.249446642179438E-004
  1.520000000000000E-002    1.308943565541397E-004
  1.530000000000000E-002    1.370999121899682E-004
  1.540000000000000E-002    1.435707003864272E-004
  1.550000000000000E-002    1.503164313934141E-004
  1.560000000000000E-002    1.573471260432464E-004
  1.570000000000000E-002    1.646731621638810E-004
  1.580000000000000E-002    1.723052515450321E-004
  1.590000000000000E-002    1.802544639685004E-004
  1.600000000000000E-002    1.885322272904931E-004
  1.610000000000000E-002    1.971503455202726E-004
  1.620000000000000E-002    2.061209503649756E-004
  1.630000000000000E-002    2.154565653960049E-004
  1.640000000000000E-002    2.251700421565915E-004
  1.650000000000000E-002    2.352746037170620E-004
  1.660000000000000E-002    2.457838175582100E-004
  1.670000000000000E-002    2.567115861083883E-004
  1.680000000000000E-002    2.680721507229232E-004
  1.690000000000000E-002    2.798801371937637E-004
  1.700000000000000E-002    2.921504756967972E-004
  1.710000000000000E-002    3.048984642699175E-004
  1.720000000000000E-002    3.181397391256631E-004
  1.730000000000000E-002    3.318903136870354E-004
  1.740000000000000E-002    3.461665053977693E-004
  1.750000000000000E-002    3.609850196646517E-004
  1.760000000000000E-002    3.763629396858634E-004
  1.770000000000000E-002    3.923176855484228E-004
  1.780000000000000E-002    4.088670388058124E-004
  1.790000000000000E-002    4.260291834666481E-004
  1.800000000000000E-002    4.438226589682033E-004
  1.810000000000000E-002    4.622663753151810E-004
  1.820000000000000E-002    4.813796294666301E-004
  1.830000000000000E-002    5.011821047796785E-004
  1.840000000000000E-002    5.216938031443778E-004
  1.850000000000000E-002    5.429351912772624E-004
  1.860000000000000E-002    5.649270022767910E-004
  1.870000000000000E-002    5.876904516832030E-004