 -4.000000000000000E-002    0.000000000000000E+000
 -3.990000000000000E-002    0.000000000000000E+000
 -3.980000000000000E-002    0.000000000000000E+000
 -3.970000000000000E-002    0.000000000000000E+000
 -3.960000000000000E-002    0.000000000000000E+000
 -3.950000000000000E-002    0.000000000000000E+000
 -3.940000000000000E-002    0.000000000000000E+000
 -3.930000000000000E-002    0.000000000000000E+000
 -3.920000000000000E-002    0.000000000000000E+000
 -3.910000000000000E-002    0.000000000000000E+000
 -3.900000000000000E-002    0.000000000000000E+000
 -3.890000000000000E-002    0.000000000000000E+000
 -3.880000000000000E-002    0.000000000000000E+000
 -3.870000000000000E-002    0.000000000000000E+000
 -3.860000000000000E-002    0.000000000000000E+000
 -3.850000000000000E-002    0.000000000000000E+000
 -3.840000000000000E-002    0.000000000000000E+000
 -3.830000000000000E-002    0.000000000000000E+000
 -3.820000000000000E-002    0.000000000000000E+000
 -3.810000000000000E-002    0.000000000000000E+000
 -3.800000000000000E-002    0.000000000000000E+000
 -3.790000000000000E-002    0.000000000000000E+000
 -3.780000000000000E-002    0.000000000000000E+000
 -3.770000000000000E-002    0.000000000000000E+000
 -3.760000000000000E-002    0.000000000000000E+000
 -3.750000000000000E-002    0.000000000000000E+000
 -3.740000000000000E-002    0.000000000000000E+000
 -3.730000000000000E-002    0.000000000000000E+000
 -3.720000000000000E-002    0.000000000000000E+000
 -3.710000000000000E-002    0.000000000000000E+000
 -3.700000000000000E-002    0.000000000000000E+000
 -3.690000000000000E-002    0.000000000000000E+000
 -3.680000000000000E-002    0.000000000000000E+000
 -3.670000000000000E-002    0.000000000000000E+000
 -3.660000000000000E-002    0.000000000000000E+000
 -3.650000000000000E-002    0.000000000000000E+000
 -3.640000000000000E-002    0.000000000000000E+000
 -3.630000000000000E-002    0.000000000000000E+000
 -3.620000000000000E-002    0.000000000000000E+000
 -3.610000000000000E-002    0.000000000000000E+000
 -3.600000000000000E-002    0.000000000000000E+000
 -3.590000000000000E-002    0.000000000000000E+000
 -3.580000000000000E-002    0.000000000000000E+000
 -3.570000000000000E-002    0.000000000000000E+000
 -3.560000000000000E-002    0.000000000000000E+000
 -3.550000000000000E-002    0.000000000000000E+000
 -3.540000000000000E-002    0.000000000000000E+000
 -3.530000000000000E-002    0.000000000000000E+000
 -3.520000000000000E-002    0.000000000000000E+000
 -3.510000000000000E-002    0.000000000000000E+000
 -3.500000000000000E-002    0.000000000000000E+000
 -3.490000000000000E-002    0.000000000000000E+000
 -3.480000000000000E-002    0.000000000000000E+000
 -3.470000000000000E-002    0.000000000000000E+000
 -3.460000000000000E-002    0.000000000000000E+000
 -3.450000000000000E-002    0.000000000000000E+000
 -3.440000000000000E-002    0.000000000000000E+000
 -3.430000000000000E-002    0.000000000000000E+000
 -3.420000000000000E-002    0.000000000000000E+000
 -3.410000000000000E-002    0.000000000000000E+000
 -3.400000000000000E-002    0.000000000000000E+000
 -3.390000000000000E-002    0.000000000000000E+000
 -3.380000000000000E-002    0.000000000000000E+000
 -3.370000000000000E-002    0.000000000000000E+000
 -3.360000000000000E-002    0.000000000000000E+000
 -3.350000000000000E-002    0.000000000000000E+000
 -3.340000000000000E-002    0.000000000000000E+000
 -3.330000000000000E-002    0.000000000000000E+000
 -3.320000000000000E-002    0.000000000000000E+000
 -3.310000000000000E-002    0.000000000000000E+000
 -3.300000000000000E-002    0.000000000000000E+000
 -3.290000000000000E-002    0.000000000000000E+000
 -3.280000000000000E-002    0.000000000000000E+000
 -3.270000000000000E-002    0.000000000000000E+000
 -3.260000000000000E-002    0.000000000000000E+000
 -3.250000000000000E-002    0.000000000000000E+000
 -3.240000000000000E-002    0.000000000000000E+000
 -3.230000000000000E-002    0.000000000000000E+000
 -3.220000000000000E-002    0.000000000000000E+000
 -3.210000000000000E-002    0.000000000000000E+000
 -3.200000000000000E-002    0.000000000000000E+000
 -3.190000000000000E-002    0.000000000000000E+000
 -3.180000000000000E-002    0.000000000000000E+000
 -3.170000000000000E-002    0.000000000000000E+000
 -3.160000000000000E-002    0.000000000000000E+000
 -3.150000000000000E-002    0.000000000000000E+000
 -3.140000000000000E-002    0.000000000000000E+000
 -3.130000000000000E-002    0.000000000000000E+000
 -3.120000000000000E-002    0.000000000000000E+000
 -3.110000000000000E-002    0.000000000000000E+000
 -3.100000000000000E-002    0.000000000000000E+000
 -3.090000000000000E-002    0.000000000000000E+000
 -3.080000000000000E-002    0.000000000000000E+000
 -3.070000000000000E-002    0.000000000000000E+000
 -3.060000000000000E-002    0.000000000000000E+000
 -3.050000000000000E-002    0.000000000000000E+000
 -3.040000000000000E-002    0.000000000000000E+000
 -3.030000000000000E-002    0.000000000000000E+000
 -3.020000000000000E-002    0.000000000000000E+000
 -3.010000000000000E-002    0.000000000000000E+000
 -3.000000000000000E-002    0.000000000000000E+000
 -2.990000000000000E-002    0.000000000000000E+000
 -2.980000000000000E-002    0.000000000000000E+000
 -2.970000000000000E-002    0.000000000000000E+000
 -2.960000000000000E-002   -6.414635304221270E-048
 -2.950000000000000E-002   -1.282927060844254E-047
 -2.940000000000000E-002   -1.282927060844254E-047
 -2.930000000000000E-002   -9.641974221765841E-047
 -2.920000000000000E-002   -4.145409125569485E-047
 -2.910000000000000E-002   -1.856161681483765E-047
 -2.900000000000000E-002    1.751603693726447E-046
 -2.890000000000000E-002    4.137848026896759E-046
 -2.880000000000000E-002    1.253686683555839E-045
 -2.870000000000000E-002    1.181794299492034E-045
 -2.860000000000000E-002    9.703025989570542E-046
 -2.850000000000000E-002    9.922219672661382E-046
 -2.840000000000000E-002   -6.311263033554917E-046
 -2.830000000000000E-002   -3.907018098352631E-045
 -2.820000000000000E-002   -8.683137054136965E-045
 -2.810000000000000E-002   -1.716560580665562E-044
 -2.800000000000000E-002   -2.860396346649833E-044
 -2.790000000000000E-002   -4.074004418515033E-044
 -2.780000000000000E-002   -5.226617670696806E-044
 -2.770000000000000E-002   -5.502331949143778E-044
 -2.760000000000000E-002   -3.781650242434958E-044
 -2.750000000000000E-002    1.446487049789847E-044
 -2.740000000000000E-002    1.200451527415061E-043
 -2.730000000000000E-002    3.004726096585808E-043
 -2.720000000000000E-002    5.659810584921152E-043
 -2.710000000000000E-002    9.094716978196420E-043
 -2.700000000000000E-002    1.288682044015183E-042
 -2.690000000000000E-002    1.604044095644885E-042
 -2.680000000000000E-002    1.679490430186265E-042
 -2.670000000000000E-002    1.246578582761528E-042
 -2.660000000000000E-002   -5.399295897067661E-044
 -2.650000000000000E-002   -2.635680242410219E-042
 -2.640000000000000E-002   -6.882597942525626E-042
 -2.630000000000000E-002   -1.300335194389526E-041
 -2.620000000000000E-002   -2.079976572427617E-041
 -2.610000000000000E-002   -2.937333523729322E-041
 -2.600000000000000E-002   -3.678468343575766E-041
 -2.590000000000000E-002   -3.973797667561807E-041
 -2.580000000000000E-002   -3.340552468233956E-041
 -2.570000000000000E-002   -1.154568993435751E-041
 -2.560000000000000E-002    3.286567553993717E-041
 -2.550000000000000E-002    1.062931181226573E-040
 -2.540000000000000E-002    2.123823501734472E-040
 -2.530000000000000E-002    3.487129043146774E-040
 -2.520000000000000E-002    5.026853057765000E-040
 -2.510000000000000E-002    6.469848743675876E-040
 -2.500000000000000E-002    7.354784019748328E-040
 -2.490000000000000E-002    7.009259924524935E-040
 -2.480000000000000E-002    4.563668987714774E-040
 -2.470000000000000E-002   -9.754807733625416E-041
 -2.460000000000000E-002   -1.056900538342228E-039
 -2.450000000000000E-002   -2.488537116595595E-039
 -2.440000000000000E-002   -4.392862236697018E-039
 -2.430000000000000E-002   -6.656464075186736E-039
 -2.420000000000000E-002   -8.998676165683303E-039
 -2.410000000000000E-002   -1.092020475057652E-038
 -2.400000000000000E-002   -1.166680922760023E-038
 -2.390000000000000E-002   -1.022611218180312E-038
 -2.380000000000000E-002   -5.380108338336976E-039
 -2.370000000000000E-002    4.161505790046159E-039
 -2.360000000000000E-002    1.952316614766436E-038
 -2.350000000000000E-002    4.130318970482203E-038
 -2.340000000000000E-002    6.908891050180250E-038
 -2.330000000000000E-002    1.008694455842959E-037
 -2.320000000000000E-002    1.324043040024794E-037
 -2.310000000000000E-002    1.566536504079481E-037
 -2.300000000000000E-002    1.634323941096223E-037
 -2.290000000000000E-002    1.395095390288736E-037
 -2.280000000000000E-002    6.942572181310572E-038
 -2.270000000000000E-002   -6.267159171621842E-038
 -2.260000000000000E-002   -2.698964135091097E-037
 -2.250000000000000E-002   -5.580140428775873E-037
 -2.240000000000000E-002   -9.193731807156503E-037
 -2.230000000000000E-002   -1.325737125512811E-036
 -2.220000000000000E-002   -1.720853079113718E-036
 -2.210000000000000E-002   -2.014217182230811E-036
 -2.200000000000000E-002   -2.078189549536428E-036
 -2.190000000000000E-002   -1.751288292168969E-036
 -2.180000000000000E-002   -8.509531858712804E-037
 -2.170000000000000E-002    8.009134691345508E-037
 -2.160000000000000E-002    3.337064471861794E-036
 -2.150000000000000E-002    6.787928703753739E-036
 -2.140000000000000E-002    1.101092686801234E-035
 -2.130000000000000E-002    1.561305744860416E-035
 -2.120000000000000E-002    1.987958723561547E-035
 -2.110000000000000E-002    2.272823445667604E-035
 -2.100000000000000E-002    2.271438046012793E-035
 -2.090000000000000E-002    1.811689957445781E-035
 -2.080000000000000E-002    7.134035677461618E-036
 -2.070000000000000E-002   -1.178817831731053E-035
 -2.060000000000000E-002   -3.948839163561596E-035
 -2.050000000000000E-002   -7.550328873296331E-035
 -2.040000000000000E-002   -1.174189977569789E-034
 -2.030000000000000E-002   -1.602630944905897E-034
 -2.020000000000000E-002   -1.960878026988526E-034
 -2.010000000000000E-002   -2.139363542679055E-034
 -2.000000000000000E-002   -2.004067758888306E-034
 -1.990000000000000E-002   -1.410156760822870E-034
 -1.980000000000000E-002   -2.250339289289166E-035
 -1.970000000000000E-002    1.639001284017460E-034
 -1.960000000000000E-002    4.184174950661924E-034
 -1.950000000000000E-002    7.282897856641989E-034
 -1.940000000000000E-002    1.063664002199012E-033
 -1.930000000000000E-002    1.374776040536315E-033
 -1.920000000000000E-002    1.591611889754469E-033
 -1.910000000000000E-002    1.627300639678866E-033
 -1.900000000000000E-002    1.386340762491632E-033
 -1.890000000000000E-002    7.783258513878965E-034
 -1.880000000000000E-002   -2.629273369339336E-034
 -1.870000000000000E-002   -1.756027909680365E-033
 -1.860000000000000E-002   -3.646933591770504E-033
 -1.850000000000000E-002   -5.786053865930475E-033
 -1.840000000000000E-002   -7.912681784044049E-033
 -1.830000000000000E-002   -9.652700581876800E-033
 -1.820000000000000E-002   -1.053551477748010E-032
 -1.810000000000000E-002   -1.003505685380094E-032
 -1.800000000000000E-002   -7.637331003741580E-033
 -1.790000000000000E-002   -2.933171593019136E-033
 -1.780000000000000E-002    4.270014141218532E-033
 -1.770000000000000E-002    1.382939722852810E-032
 -1.760000000000000E-002    2.515820343261134E-032
 -1.750000000000000E-002    3.714946914856783E-032
 -1.740000000000000E-002    4.815633390613700E-032
 -1.730000000000000E-002    5.605217561801554E-032
 -1.720000000000000E-002    5.838876752406824E-032
 -1.710000000000000E-002    5.266089837569935E-032
 -1.700000000000000E-002    3.667202090206402E-032
 -1.690000000000000E-002    8.978069460125812E-033
 -1.680000000000000E-002   -3.063213823847017E-032
 -1.670000000000000E-002   -8.067939772022081E-032
 -1.660000000000000E-002   -1.376329594852084E-031
 -1.650000000000000E-002   -1.957264573208019E-031
 -1.640000000000000E-002   -2.470298204905147E-031
 -1.630000000000000E-002   -2.818429563074949E-031
 -1.620000000000000E-002   -2.894532590044502E-031
 -1.610000000000000E-002   -2.592633839820660E-031
 -1.600000000000000E-002   -1.822533313410333E-031
 -1.590000000000000E-002   -5.269064537956549E-032
 -1.580000000000000E-002    1.300472755331584E-031
 -1.570000000000000E-002    3.597244689181955E-031
 -1.560000000000000E-002    6.218000062753184E-031
 -1.550000000000000E-002    8.925461263934582E-031
 -1.540000000000000E-002    1.139013142830796E-030
 -1.530000000000000E-002    1.320122344817498E-030
 -1.520000000000000E-002    1.389141796558185E-030
 -1.510000000000000E-002    1.297735053173870E-030
 -1.500000000000000E-002    1.001658246981810E-030
 -1.490000000000000E-002    4.680078944904300E-031
 -1.480000000000000E-002   -3.163253964180943E-031
 -1.470000000000000E-002   -1.335654781750918E-030
 -1.460000000000000E-002   -2.536974455975042E-030
 -1.450000000000000E-002   -3.823328924258582E-030
 -1.440000000000000E-002   -5.050831145609020E-030
 -1.430000000000000E-002   -6.031284256521687E-030
 -1.420000000000000E-002   -6.542333116121373E-030
 -1.410000000000000E-002   -6.346660749119868E-030
 -1.400000000000000E-002   -5.220901890826259E-030
 -1.390000000000000E-002   -2.993584170923473E-030
 -1.380000000000000E-002    4.104154846094564E-031
 -1.370000000000000E-002    4.923547843140203E-030
 -1.360000000000000E-002    1.029423597331474E-029
 -1.350000000000000E-002    1.605914408987013E-029
 -1.340000000000000E-002    2.153867532293578E-029
 -1.330000000000000E-002    2.586489337092679E-029
 -1.320000000000000E-002    2.804881956945121E-029
 -1.310000000000000E-002    2.708969999241431E-029
 -1.300000000000000E-002    2.212253294516156E-029
 -1.290000000000000E-002    1.259226463341698E-029
 -1.280000000000000E-002   -1.565348454650986E-030
 -1.270000000000000E-002   -1.976381222344650E-029
 -1.260000000000000E-002   -4.065952691444659E-029
 -1.250000000000000E-002   -6.213237675102612E-029
 -1.240000000000000E-002   -8.138170420610603E-029
 -1.230000000000000E-002   -9.515446503188524E-029
 -1.220000000000000E-002   -1.001046170124757E-028
 -1.210000000000000E-002   -9.326014650156424E-029
 -1.200000000000000E-002   -7.254955806485086E-029
 -1.190000000000000E-002   -3.731769503926175E-029
 -1.180000000000000E-002    1.125458791251418E-029
 -1.170000000000000E-002    6.991567853293714E-029
 -1.160000000000000E-002    1.333704087986609E-028
 -1.150000000000000E-002    1.946175655129601E-028
 -1.140000000000000E-002    2.456025381934165E-028
 -1.130000000000000E-002    2.781359582880403E-028
 -1.120000000000000E-002    2.849742435416619E-028
 -1.110000000000000E-002    2.609109401327621E-028
 -1.100000000000000E-002    2.037026545973485E-028
 -1.090000000000000E-002    1.146569641557570E-028
 -1.080000000000000E-002   -1.249361845127532E-030
 -1.070000000000000E-002   -1.357792524021852E-028
 -1.060000000000000E-002   -2.783279578122482E-028
 -1.050000000000000E-002   -4.171471143899076E-028
 -1.040000000000000E-002   -5.406547709409939E-028
 -1.030000000000000E-002   -6.385332928817711E-028
 -1.020000000000000E-002   -7.023301087727338E-028
 -1.010000000000000E-002   -7.253679464569297E-028
 -1.000000000000000E-002   -7.019401481532667E-028
 -9.899999999999999E-003   -6.259927597249420E-028
 -9.800000000000000E-003   -4.897377264577896E-028
 -9.699999999999999E-003   -2.828394202630703E-028
 -9.599999999999999E-003    7.092554170898844E-030
 -9.500000000000000E-003    3.920527007566891E-028
 -9.399999999999999E-003    8.788716932955255E-028
 -9.299999999999999E-003    1.462278908290294E-027
 -9.200000000000000E-003    2.116615644574932E-027
 -9.099999999999999E-003    2.787758830222106E-027
 -8.999999999999999E-003    3.387461442639294E-027
 -8.900000000000000E-003    3.792694193197118E-027
 -8.799999999999999E-003    3.852491503561058E-027
 -8.699999999999999E-003    3.404127845432311E-027
 -8.600000000000000E-003    2.299109091169607E-027
 -8.499999999999999E-003    4.375514127678210E-028
 -8.399999999999999E-003   -2.192785395827741E-027
 -8.300000000000000E-003   -5.478849680181599E-027
 -8.199999999999999E-003   -9.153910133618465E-027
 -8.100000000000000E-003   -1.278716904371402E-026
 -8.000000000000000E-003   -1.579949938361105E-026
 -7.899999999999999E-003   -1.751104865421483E-026
 -7.800000000000000E-003   -1.722223725690310E-026
 -7.699999999999999E-003   -1.432392467611545E-026
 -7.599999999999999E-003   -8.425963918261363E-027
 -7.499999999999999E-003    5.130376186413450E-028
 -7.399999999999999E-003    1.207685824074770E-026
 -7.299999999999999E-003    2.532794019134824E-026
 -7.199999999999999E-003    3.881137437403131E-026
 -7.100000000000000E-003    5.064298143978676E-026
 -6.999999999999999E-003    5.868727177529209E-026
 -6.899999999999999E-003    6.081717720117805E-026
 -6.800000000000000E-003    5.523172468071909E-026
 -6.699999999999999E-003    4.079319565099449E-026
 -6.599999999999999E-003    1.733439466273604E-026
 -6.499999999999999E-003   -1.411779660155116E-026
 -6.399999999999999E-003   -5.125216327958214E-026
 -6.299999999999999E-003   -9.055213743402403E-026
 -6.199999999999999E-003   -1.275578508254612E-025
 -6.100000000000000E-003   -1.572970934290985E-025
 -5.999999999999999E-003   -1.748413751714626E-025
 -5.899999999999999E-003   -1.759177505614654E-025
 -5.800000000000000E-003   -1.574908829390359E-025
 -5.699999999999999E-003   -1.182275551449010E-025
 -5.599999999999999E-003   -5.877103490429990E-026
 -5.499999999999999E-003    1.821714588603381E-026
 -5.399999999999999E-003    1.082473483666614E-025
 -5.299999999999999E-003    2.053765515353349E-025
 -5.199999999999999E-003    3.026792509833649E-025
 -5.099999999999999E-003    3.927019967974100E-025
 -4.999999999999999E-003    4.677912744151595E-025
 -4.899999999999999E-003    5.202189513313910E-025
 -4.799999999999999E-003    5.420940327685456E-025
 -4.699999999999999E-003    5.251376344466755E-025
 -4.599999999999999E-003    4.604916004112170E-025
 -4.499999999999999E-003    3.388086274950164E-025
 -4.399999999999999E-003    1.509071440220942E-025
 -4.299999999999999E-003   -1.107556565284001E-025
 -4.199999999999999E-003   -4.496496177457660E-025
 -4.099999999999999E-003   -8.618272297723159E-025
 -3.999999999999999E-003   -1.331981713073908E-024
 -3.899999999999999E-003   -1.829514573283892E-024
 -3.799999999999999E-003   -2.305493358748863E-024
 -3.699999999999999E-003   -2.691572094837850E-024
 -3.599999999999999E-003   -2.901983169332012E-024
 -3.499999999999999E-003   -2.839541158367865E-024
 -3.399999999999999E-003   -2.406186079270858E-024
 -3.299999999999999E-003   -1.517947381012418E-024
 -3.199999999999999E-003   -1.233718177193432E-025
 -3.099999999999999E-003    1.776470181930644E-024
 -2.999999999999999E-003    4.109161175817995E-024
 -2.899999999999999E-003    6.716722682445873E-024
 -2.799999999999999E-003    9.349717877863312E-024
 -2.699999999999999E-003    1.167311984065171E-023
 -2.599999999999999E-003    1.328652094857071E-023
 -2.499999999999999E-003    1.375975046898763E-023
 -2.399999999999999E-003    1.268291559996067E-023
 -2.299999999999999E-003    9.727509495297073E-024
 -2.199999999999999E-003    4.712791347553487E-024
 -2.099999999999999E-003   -2.330471782811086E-024
 -1.999999999999999E-003   -1.110821322046729E-023
 -1.899999999999999E-003   -2.103293019966449E-023
 -1.799999999999999E-003   -3.122400128701604E-023
 -1.699999999999999E-003   -4.054498559628712E-023
 -1.599999999999999E-003   -4.768085898729455E-023
 -1.499999999999999E-003   -5.125360911374884E-023
 -1.399999999999999E-003   -4.996954052042176E-023
 -1.299999999999999E-003   -4.278663177949706E-023
 -1.199999999999999E-003   -2.908610909123225E-023
 -1.099999999999999E-003   -8.829452275378139E-024
 -9.999999999999989E-004    1.731885844948232E-023
 -8.999999999999990E-004    4.792148638693789E-023
 -7.999999999999990E-004    8.076654398891945E-023
 -6.999999999999989E-004    1.129441705580235E-022
 -5.999999999999990E-004    1.410048931440723E-022
 -4.999999999999989E-004    1.611960701619379E-022
 -3.999999999999989E-004    1.697653731553311E-022
 -2.999999999999989E-004    1.633140397696546E-022
 -1.999999999999989E-004    1.391770622303241E-022
 -9.999999999999892E-005    9.580398414205441E-023
  1.084202172485504E-018    3.311174269908339E-023
  1.000000000000011E-004   -4.722015915973848E-023
  2.000000000000011E-004   -1.415418223951915E-022
  3.000000000000011E-004   -2.441416597115846E-022
  4.000000000000011E-004   -3.472999946431728E-022
  5.000000000000011E-004   -4.415140809730413E-022
  6.000000000000011E-004   -5.159177416065988E-022
  7.000000000000011E-004   -5.589130579427267E-022
  8.000000000000011E-004   -5.590209896391742E-022
  9.000000000000012E-004   -5.059422111830483E-022
  1.000000000000001E-003   -3.917965753476175E-022
  1.100000000000001E-003   -2.124804257939461E-022
  1.200000000000001E-003    3.095440401410858E-023
  1.300000000000001E-003    3.310327238506118E-022
  1.400000000000001E-003    6.728677797579200E-022
  1.500000000000001E-003    1.033646416305594E-021
  1.600000000000001E-003    1.382792075983648E-021
  1.700000000000001E-003    1.682994268554489E-021
  1.800000000000001E-003    1.892249673892461E-021
  1.900000000000001E-003    1.966980825409738E-021
  2.000000000000001E-003    1.866186308916825E-021
  2.100000000000001E-003    1.556436072485436E-021
  2.200000000000001E-003    1.017367927479168E-021
  2.300000000000001E-003    2.471877874779418E-022
  2.400000000000001E-003   -7.324630763256823E-022
  2.500000000000001E-003   -1.872995012707475E-021
  2.600000000000001E-003   -3.097456166690721E-021
  2.700000000000001E-003   -4.301892980804439E-021
  2.800000000000001E-003   -5.359993310920570E-021
  2.900000000000001E-003   -6.131252021232304E-021
  3.000000000000001E-003   -6.472539501929888E-021
  3.100000000000001E-003   -6.252538165584373E-021
  3.200000000000001E-003   -5.368063838009305E-021
  3.300000000000001E-003   -3.760878686573808E-021
  3.400000000000001E-003   -1.433266046481364E-021
  3.500000000000001E-003    1.539559543693491E-021
  3.600000000000001E-003    5.002141597158987E-021
  3.700000000000001E-003    8.718309480106245E-021
  3.800000000000001E-003    1.237885404711072E-020
  3.900000000000001E-003    1.561802145199301E-020
  4.000000000000001E-003    1.803869974254898E-020
  4.100000000000001E-003    1.924524926112085E-020
  4.200000000000001E-003    1.888200824887608E-020
  4.300000000000001E-003    1.667465586656451E-020
  4.400000000000001E-003    1.247092242481532E-020
  4.500000000000001E-003    6.276707671444178E-021
  4.600000000000002E-003   -1.716433984314787E-021
  4.700000000000001E-003   -1.111624755144675E-020
  4.800000000000001E-003   -2.133037564531621E-020
  4.900000000000002E-003   -3.158485782697952E-020
  5.000000000000001E-003   -4.096159081362240E-020
  5.100000000000001E-003   -4.845439635564645E-020
  5.200000000000001E-003   -5.304180337204126E-020
  5.300000000000002E-003   -5.377311794834911E-020
  5.400000000000001E-003   -4.986289309921994E-020
  5.500000000000001E-003   -4.078753565829617E-020
  5.600000000000002E-003   -2.637677660325816E-020
  5.700000000000001E-003   -6.891880559038037E-021
  5.800000000000001E-003    1.691792206097465E-020
  5.900000000000002E-003    4.378914756267959E-020
  6.000000000000001E-003    7.195570109248818E-020
  6.100000000000001E-003    9.920481584037916E-020
  6.200000000000002E-003    1.229815438233867E-019
  6.300000000000002E-003    1.405429914371234E-019
  6.400000000000001E-003    1.491596349844927E-019
  6.500000000000001E-003    1.463563008549892E-019
  6.600000000000002E-003    1.301802099751365E-019
  6.700000000000001E-003    9.947790924975342E-020
  6.800000000000001E-003    5.415783176458098E-020
  6.900000000000002E-003   -4.588943973378431E-021
  7.000000000000001E-003   -7.413964018039226E-020
  7.100000000000001E-003   -1.503921538843861E-019
  7.200000000000002E-003   -2.278453332906750E-019
  7.300000000000002E-003   -2.998266756697322E-019
  7.400000000000001E-003   -3.588764546282831E-019
  7.500000000000001E-003   -3.972829804295680E-019
  7.600000000000002E-003   -4.077473903601089E-019
  7.700000000000001E-003   -3.841386158172925E-019
  7.800000000000001E-003   -3.222816121482437E-019
  7.900000000000001E-003   -2.207079874644083E-019
  8.000000000000002E-003   -8.128807714931276E-020
  8.100000000000001E-003    9.033898183370971E-020
  8.200000000000001E-003    2.846153224628869E-019
  8.300000000000002E-003    4.882579077616581E-019
  8.400000000000001E-003    6.848350681314915E-019
  8.500000000000002E-003    8.557343675676048E-019
  8.600000000000002E-003    9.814922662868402E-019
  8.700000000000001E-003    1.043417106674877E-018
  8.800000000000002E-003    1.025398160874195E-018
  8.900000000000002E-003    9.157602106628240E-019
  9.000000000000001E-003    7.090009279200004E-019
  9.100000000000002E-003    4.072351209290453E-019
  9.200000000000002E-003    2.117554818698071E-020
  9.300000000000001E-003   -4.294996844257325E-019
  9.400000000000002E-003   -9.165087140257834E-019
  9.500000000000001E-003   -1.404121231268512E-018
  9.600000000000001E-003   -1.851112510167660E-018
  9.700000000000002E-003   -2.213454609470046E-018
  9.800000000000001E-003   -2.447615276454077E-018
  9.900000000000001E-003   -2.514271276034666E-018
  1.000000000000000E-002   -2.382186226898900E-018
  1.010000000000000E-002   -2.031962338373921E-018
  1.020000000000000E-002   -1.459350384298198E-018
  1.030000000000000E-002   -6.777959495356230E-019
  1.040000000000000E-002    2.800809303717452E-019
  1.050000000000000E-002    1.362335542432081E-018
  1.060000000000000E-002    2.499076283306408E-018
  1.070000000000000E-002    3.605482110367818E-018
  1.080000000000000E-002    4.586462454994896E-018
  1.090000000000000E-002    5.342839817027319E-018
  1.100000000000000E-002    5.778797079835480E-018
  1.110000000000000E-002    5.810192852693763E-018
  1.120000000000000E-002    5.373210840958408E-018
  1.130000000000000E-002    4.432695302262412E-018
  1.140000000000000E-002    2.989437474761112E-018
  1.150000000000000E-002    1.085637927882264E-018
  1.160000000000000E-002   -1.192213077348110E-018
  1.170000000000000E-002   -3.713704626261104E-018
  1.180000000000000E-002   -6.308625070895603E-018
  1.190000000000000E-002   -8.775093579782071E-018
  1.200000000000000E-002   -1.089165295853061E-017
  1.210000000000000E-002   -1.243291105580338E-017
  1.220000000000000E-002   -1.318792774716386E-017
  1.230000000000000E-002   -1.298016658037424E-017
  1.240000000000000E-002   -1.168749496914484E-017
  1.250000000000000E-002   -9.260472005211741E-018
  1.260000000000000E-002   -5.737060546094424E-018
  1.270000000000000E-002   -1.251917492637248E-018
  1.280000000000000E-002    3.961335294600842E-018
  1.290000000000000E-002    9.576057685391509E-018
  1.300000000000000E-002    1.518737837189918E-017
  1.310000000000000E-002    2.033573062656090E-017
  1.320000000000000E-002    2.453822964360334E-017
  1.330000000000000E-002    2.732619203482429E-017
  1.340000000000000E-002    2.828630370353626E-017
  1.350000000000000E-002    2.710233474222926E-017
  1.360000000000000E-002    2.359384918671598E-017
  1.370000000000000E-002    1.774825379031871E-017
  1.380000000000000E-002    9.742603836710950E-018
  1.390000000000000E-002   -4.784669974778554E-020
  1.400000000000000E-002   -1.105663706059814E-017
  1.410000000000000E-002   -2.254980747759648E-017
  1.420000000000000E-002   -3.366622713945542E-017
  1.430000000000000E-002   -4.347303342047701E-017
  1.440000000000000E-002   -5.103327052811217E-017
  1.450000000000000E-002   -5.548147421105069E-017
  1.460000000000000E-002   -5.610189331984315E-017
  1.470000000000000E-002   -5.240317194676534E-017
  1.480000000000000E-002   -4.418311553542305E-017
  1.490000000000000E-002   -3.157712266459881E-017
  1.500000000000000E-002   -1.508464567157321E-017
  1.510000000000000E-002    4.430846528155533E-018
  1.520000000000000E-002    2.577123852420885E-017
  1.530000000000000E-002    4.746327668726817E-017
  1.540000000000000E-002    6.784663432416424E-017
  1.550000000000000E-002    8.518650538755400E-017
  1.560000000000000E-002    9.780428291276073E-017
  1.570000000000000E-002    1.042176520478648E-016
  1.580000000000000E-002    1.032797476700031E-016
  1.590000000000000E-002    9.430601735190050E-017
  1.600000000000000E-002    7.717709092625196E-017
  1.610000000000000E-002    5.240660955859592E-017
  1.620000000000000E-002    2.116483891300261E-017
  1.630000000000000E-002   -1.474870758882909E-017
  1.640000000000000E-002   -5.298675941430548E-017
  1.650000000000000E-002   -9.078888934127395E-017
  1.660000000000000E-002   -1.251636603220414E-016
  1.670000000000000E-002   -1.531081825753226E-016
  1.680000000000000E-002   -1.718506279153499E-016
  1.690000000000000E-002   -1.790978350548983E-016
  1.700000000000000E-002   -1.732676411069669E-016
  1.710000000000000E-002   -1.536849485836481E-016
  1.720000000000000E-002   -1.207210867454945E-016
  1.730000000000000E-002   -7.585902556827108E-017
  1.740000000000000E-002   -2.167133940824206E-017
  1.750000000000000E-002    3.829597785485812E-017
  1.760000000000000E-002    9.973321662920334E-017
  1.770000000000000E-002    1.578614692391371E-016
  1.780000000000000E-002    2.077947911394904E-016
  1.790000000000000E-002    2.449451650847905E-016
  1.800000000000000E-002    2.654388273925546E-016
  1.810000000000000E-002    2.665085229016456E-016
  1.820000000000000E-002    2.468240257747716E-016
  1.830000000000000E-002    2.067255094460889E-016
  1.840000000000000E-002    1.483285065733512E-016
  1.850000000000000E-002    7.547833850872777E-017
  1.860000000000000E-002   -6.457259709479429E-018
  1.870000000000000E-002   -9.095449684024893E-017