 -4.000000000000000E-002    0.000000000000000E+000
 -3.990000000000000E-002    0.000000000000000E+000
 -3.980000000000000E-002    0.000000000000000E+000
 -3.970000000000000E-002    0.000000000000000E+000
 -3.960000000000000E-002    0.000000000000000E+000
 -3.950000000000000E-002    0.000000000000000E+000
 -3.940000000000000E-002    0.000000000000000E+000
 -3.930000000000000E-002    0.000000000000000E+000
 -3.920000000000000E-002    0.000000000000000E+000
 -3.910000000000000E-002    0.000000000000000E+000
 -3.900000000000000E-002    0.000000000000000E+000
 -3.890000000000000E-002    0.000000000000000E+000
 -3.880000000000000E-002    0.000000000000000E+000
 -3.870000000000000E-002    0.000000000000000E+000
 -3.860000000000000E-002    0.000000000000000E+000
 -3.850000000000000E-002    0.000000000000000E+000
 -3.840000000000000E-002    0.000000000000000E+000
 -3.830000000000000E-002    0.000000000000000E+000
 -3.820000000000000E-002    0.000000000000000E+000
 -3.810000000000000E-002    0.000000000000000E+000
 -3.800000000000000E-002    0.000000000000000E+000
 -3.790000000000000E-002    0.000000000000000E+000
 -3.780000000000000E-002    0.000000000000000E+000
 -3.770000000000000E-002    0.000000000000000E+000
 -3.760000000000000E-002    0.000000000000000E+000
 -3.750000000000000E-002    0.000000000000000E+000
 -3.740000000000000E-002    0.000000000000000E+000
 -3.730000000000000E-002    0.000000000000000E+000
 -3.720000000000000E-002    0.000000000000000E+000
 -3.710000000000000E-002    0.000000000000000E+000
 -3.700000000000000E-002    0.000000000000000E+000
 -3.690000000000000E-002    0.000000000000000E+000
 -3.680000000000000E-002    0.000000000000000E+000
 -3.670000000000000E-002    0.000000000000000E+000
 -3.660000000000000E-002    0.000000000000000E+000
 -3.650000000000000E-002    0.000000000000000E+000
 -3.640000000000000E-002    0.000000000000000E+000
 -3.630000000000000E-002    0.000000000000000E+000
 -3.620000000000000E-002    0.000000000000000E+000
 -3.610000000000000E-002    0.000000000000000E+000
 -3.600000000000000E-002    0.000000000000000E+000
 -3.590000000000000E-002    0.000000000000000E+000
 -3.580000000000000E-002    0.000000000000000E+000
 -3.570000000000000E-002    0.000000000000000E+000
 -3.560000000000000E-002    0.000000000000000E+000
 -3.550000000000000E-002    0.000000000000000E+000
 -3.540000000000000E-002    0.000000000000000E+000
 -3.530000000000000E-002    0.000000000000000E+000
 -3.520000000000000E-002    0.000000000000000E+000
 -3.510000000000000E-002    0.000000000000000E+000
 -3.500000000000000E-002    0.000000000000000E+000
 -3.490000000000000E-002    0.000000000000000E+000
 -3.480000000000000E-002    0.000000000000000E+000
 -3.470000000000000E-002    0.000000000000000E+000
 -3.460000000000000E-002    0.000000000000000E+000
 -3.450000000000000E-002    0.000000000000000E+000
 -3.440000000000000E-002    0.000000000000000E+000
 -3.430000000000000E-002    0.000000000000000E+000
 -3.420000000000000E-002    0.000000000000000E+000
 -3.410000000000000E-002    0.000000000000000E+000
 -3.400000000000000E-002    0.000000000000000E+000
 -3.390000000000000E-002    0.000000000000000E+000
 -3.380000000000000E-002    0.000000000000000E+000
 -3.370000000000000E-002    0.000000000000000E+000
 -3.360000000000000E-002    0.000000000000000E+000
 -3.350000000000000E-002    0.000000000000000E+000
 -3.340000000000000E-002    0.000000000000000E+000
 -3.330000000000000E-002    0.000000000000000E+000
 -3.320000000000000E-002    0.000000000000000E+000
 -3.310000000000000E-002    0.000000000000000E+000
 -3.300000000000000E-002    0.000000000000000E+000
 -3.290000000000000E-002    0.000000000000000E+000
 -3.280000000000000E-002    0.000000000000000E+000
 -3.270000000000000E-002    0.000000000000000E+000
 -3.260000000000000E-002    0.000000000000000E+000
 -3.250000000000000E-002    0.000000000000000E+000
 -3.240000000000000E-002    0.000000000000000E+000
 -3.230000000000000E-002    1.289600815988899E-047
 -3.220000000000000E-002    4.289771046436804E-047
 -3.210000000000000E-002    7.938078562451481E-047
 -3.200000000000000E-002    1.201402843208091E-046
 -3.190000000000000E-002    1.587615712490296E-046
 -3.180000000000000E-002    1.995210699453239E-046
 -3.170000000000000E-002    2.120145697938870E-046
 -3.160000000000000E-002    1.470652831316697E-046
 -3.150000000000000E-002   -5.003779425908016E-047
 -3.140000000000000E-002   -3.545602264228006E-046
 -3.130000000000000E-002   -8.615700079622122E-046
 -3.120000000000000E-002   -1.590617520597058E-045
 -3.110000000000000E-002   -2.476751389567690E-045
 -3.100000000000000E-002   -3.890817098495476E-045
 -3.090000000000000E-002   -5.575155185380482E-045
 -3.080000000000000E-002   -7.423895133762434E-045
 -3.070000000000000E-002   -9.432313291422904E-045
 -3.060000000000000E-002   -9.434032358968402E-045
 -3.050000000000000E-002   -7.510211483227629E-045
 -3.040000000000000E-002   -3.104306342721230E-045
 -3.030000000000000E-002    4.319151547602181E-045
 -3.020000000000000E-002    1.695740766173253E-044
 -3.010000000000000E-002    3.493985506849988E-044
 -3.000000000000000E-002    5.637943520302079E-044
 -2.990000000000000E-002    7.736607818346340E-044
 -2.980000000000000E-002    9.019552641205773E-044
 -2.970000000000000E-002    8.381630057765903E-044
 -2.960000000000000E-002    4.536808540742454E-044
 -2.950000000000000E-002   -3.734477503091958E-044
 -2.940000000000000E-002   -1.688185373907169E-043
 -2.930000000000000E-002   -3.356516148809908E-043
 -2.920000000000000E-002   -4.902179902485941E-043
 -2.910000000000000E-002   -5.315007800375307E-043
 -2.900000000000000E-002   -2.870116329927417E-043
 -2.890000000000000E-002    5.028118743501246E-043
 -2.880000000000000E-002    2.180989018015926E-042
 -2.870000000000000E-002    5.141639504430804E-042
 -2.860000000000000E-002    9.745249444363752E-042
 -2.850000000000000E-002    1.615902429530428E-041
 -2.840000000000000E-002    2.411019144809815E-041
 -2.830000000000000E-002    3.253104117309777E-041
 -2.820000000000000E-002    3.911669123748989E-041
 -2.810000000000000E-002    3.983101710065392E-041
 -2.800000000000000E-002    2.846828584718073E-041
 -2.790000000000000E-002   -3.578487971832787E-042
 -2.780000000000000E-002   -6.709341735012439E-041
 -2.770000000000000E-002   -1.740572305829717E-040
 -2.760000000000000E-002   -3.355200043448708E-040
 -2.750000000000000E-002   -5.579876325421255E-040
 -2.740000000000000E-002   -8.380016465983359E-040
 -2.730000000000000E-002   -1.154845212122323E-039
 -2.720000000000000E-002   -1.461661473208266E-039
 -2.710000000000000E-002   -1.675840862982961E-039
 -2.700000000000000E-002   -1.670302153564173E-039
 -2.690000000000000E-002   -1.268226877039249E-039
 -2.680000000000000E-002   -2.448258096118249E-040
 -2.670000000000000E-002    1.659386053557131E-039
 -2.660000000000000E-002    4.708683909953822E-039
 -2.650000000000000E-002    9.120519884313459E-039
 -2.640000000000000E-002    1.498815899672328E-038
 -2.630000000000000E-002    2.217591569631021E-038
 -2.620000000000000E-002    3.018956717847145E-038
 -2.610000000000000E-002    3.803058552329890E-038
 -2.600000000000000E-002    4.405114614958783E-038
 -2.590000000000000E-002    4.583656266523371E-038
 -2.580000000000000E-002    4.015287188869907E-038
 -2.570000000000000E-002    2.300762736014183E-038
 -2.560000000000000E-002   -1.011928684538725E-038
 -2.550000000000000E-002   -6.381434125445327E-038
 -2.540000000000000E-002   -1.419812089593511E-037
 -2.530000000000000E-002   -2.467608118593279E-037
 -2.520000000000000E-002   -3.771059776603165E-037
 -2.510000000000000E-002   -5.270404040322699E-037
 -2.500000000000000E-002   -6.836987785140380E-037
 -2.490000000000000E-002   -8.253270645633693E-037
 -2.480000000000000E-002   -9.195304317194257E-037
 -2.470000000000000E-002   -9.221718981464346E-037
 -2.460000000000000E-002   -7.774550704266482E-037
 -2.450000000000000E-002   -4.198376854395700E-037
 -2.440000000000000E-002    2.214835827013296E-037
 -2.430000000000000E-002    1.214748327788960E-036
 -2.420000000000000E-002    2.613764334400827E-036
 -2.410000000000000E-002    4.441496340039242E-036
 -2.400000000000000E-002    6.669014359114689E-036
 -2.390000000000000E-002    9.190349582200672E-036
 -2.380000000000000E-002    1.179474583254906E-035
 -2.370000000000000E-002    1.413902489637221E-035
 -2.360000000000000E-002    1.572436271752440E-035
 -2.350000000000000E-002    1.588349240241598E-035
 -2.340000000000000E-002    1.378620369487574E-035
 -2.330000000000000E-002    8.472561350550542E-036
 -2.320000000000000E-002   -1.075691955398056E-036
 -2.310000000000000E-002   -1.581529287890755E-035
 -2.300000000000000E-002   -3.646481784200025E-035
 -2.290000000000000E-002   -6.326719989654787E-035
 -2.280000000000000E-002   -9.569482649662182E-035
 -2.270000000000000E-002   -1.321115205279696E-034
 -2.260000000000000E-002   -1.694202445003409E-034
 -2.250000000000000E-002   -2.027430123021812E-034
 -2.240000000000000E-002   -2.251990039620729E-034
 -2.230000000000000E-002   -2.278660246741420E-034
 -2.220000000000000E-002   -2.000258920297162E-034
 -2.210000000000000E-002   -1.298012860219414E-034
 -2.200000000000000E-002   -5.286717778605180E-036
 -2.190000000000000E-002    1.837498105276617E-034
 -2.180000000000000E-002    4.435656455665353E-034
 -2.170000000000000E-002    7.735911540894338E-034
 -2.160000000000000E-002    1.163179975516585E-033
 -2.150000000000000E-002    1.588246317836571E-033
 -2.140000000000000E-002    2.008226630669366E-033
 -2.130000000000000E-002    2.363948430717283E-033
 -2.120000000000000E-002    2.577129833812377E-033
 -2.110000000000000E-002    2.552316704504706E-033
 -2.100000000000000E-002    2.182071886878731E-033
 -2.090000000000000E-002    1.356122617237228E-033
 -2.080000000000000E-002   -2.507715241635699E-035
 -2.070000000000000E-002   -2.032339876250945E-033
 -2.060000000000000E-002   -4.685870703828156E-033
 -2.050000000000000E-002   -7.930858711306010E-033
 -2.040000000000000E-002   -1.161276922215613E-032
 -2.030000000000000E-002   -1.545550553427421E-032
 -2.020000000000000E-002   -1.904646845509818E-032
 -2.010000000000000E-002   -2.183321952179648E-032
 -2.000000000000000E-002   -2.313673755626990E-032
 -1.990000000000000E-002   -2.218598450467509E-032
 -1.980000000000000E-002   -1.817752403586983E-032
 -1.970000000000000E-002   -1.036211678481197E-032
 -1.960000000000000E-002    1.842525370090437E-033
 -1.950000000000000E-002    1.871722587096549E-032
 -1.940000000000000E-002    4.009374560526239E-032
 -1.930000000000000E-002    6.520751524032380E-032
 -1.920000000000000E-002    9.256865952680079E-032
 -1.910000000000000E-002    1.198733079622689E-031
 -1.900000000000000E-002    1.439797736027147E-031
 -1.890000000000000E-002    1.609746104892210E-031
 -1.880000000000000E-002    1.663513340129478E-031
 -1.870000000000000E-002    1.553185928822338E-031
 -1.860000000000000E-002    1.232450556445667E-031
 -1.850000000000000E-002    6.623465060779066E-032
 -1.840000000000000E-002   -1.819099311371334E-032
 -1.830000000000000E-002   -1.303460525450101E-031
 -1.820000000000000E-002   -2.676329667294284E-031
 -1.810000000000000E-002   -4.238770950045276E-031
 -1.800000000000000E-002   -5.888426410984261E-031
 -1.790000000000000E-002   -7.480383640558325E-031
 -1.780000000000000E-002   -8.829225968654970E-031
 -1.770000000000000E-002   -9.716062510241591E-031
 -1.760000000000000E-002   -9.901265913970652E-031
 -1.750000000000000E-002   -9.143242584887892E-031
 -1.740000000000000E-002   -7.223028184970033E-031
 -1.730000000000000E-002   -3.973791376866951E-031
 -1.720000000000000E-002    6.864192366651447E-032
 -1.710000000000000E-002    6.721184961343704E-031
 -1.700000000000000E-002    1.394474710234562E-030
 -1.690000000000000E-002    2.199748763865320E-030
 -1.680000000000000E-002    3.033220660541850E-030
 -1.670000000000000E-002    3.821563073915525E-030
 -1.660000000000000E-002    4.474925739305939E-030
 -1.650000000000000E-002    4.891277548278542E-030
 -1.640000000000000E-002    4.963189320642214E-030
 -1.630000000000000E-002    4.587034116383547E-030
 -1.620000000000000E-002    3.674343893927514E-030
 -1.610000000000000E-002    2.164748433691459E-030
 -1.600000000000000E-002    3.961043661277160E-032
 -1.590000000000000E-002   -2.664830101763062E-030
 -1.580000000000000E-002   -5.846301520570541E-030
 -1.570000000000000E-002   -9.329013347385936E-030
 -1.560000000000000E-002   -1.286160466949954E-029
 -1.550000000000000E-002   -1.612224393041675E-029
 -1.540000000000000E-002   -1.873230871594416E-029
 -1.530000000000000E-002   -2.027957754434897E-029
 -1.520000000000000E-002   -2.035113095689810E-029
 -1.510000000000000E-002   -1.857517204023525E-029
 -1.500000000000000E-002   -1.466981422644527E-029
 -1.490000000000000E-002   -8.495546930790040E-030
 -1.480000000000000E-002   -1.068045951421300E-031
 -1.470000000000000E-002    1.020325194883586E-029
 -1.460000000000000E-002    2.187149168023918E-029
 -1.450000000000000E-002    3.405445821355831E-029
 -1.440000000000000E-002    4.564588789309677E-029
 -1.430000000000000E-002    5.532835135945918E-029
 -1.420000000000000E-002    6.166284690478933E-029
 -1.410000000000000E-002    6.321744472587810E-029
 -1.400000000000000E-002    5.873158763257854E-029
 -1.390000000000000E-002    4.730785372629470E-029
 -1.380000000000000E-002    2.861696808521790E-029
 -1.370000000000000E-002    3.096321806920797E-030
 -1.360000000000000E-002   -2.788341154915649E-029
 -1.350000000000000E-002   -6.191296551791569E-029
 -1.340000000000000E-002   -9.553183295507038E-029
 -1.330000000000000E-002   -1.243386475440717E-028
 -1.320000000000000E-002   -1.432502851860672E-028
 -1.310000000000000E-002   -1.469257315742403E-028
 -1.300000000000000E-002   -1.303563239063980E-028
 -1.290000000000000E-002   -8.960557815194651E-029
 -1.280000000000000E-002   -2.265760324956303E-029
 -1.270000000000000E-002    6.969118164584059E-029
 -1.260000000000000E-002    1.829905504284121E-028
 -1.250000000000000E-002    3.084610144512868E-028
 -1.240000000000000E-002    4.326201110311724E-028
 -1.230000000000000E-002    5.373541774739811E-028
 -1.220000000000000E-002    6.005743136222500E-028
 -1.210000000000000E-002    5.975726256136365E-028
 -1.200000000000000E-002    5.031528777428453E-028
 -1.190000000000000E-002    2.945441556540785E-028
 -1.180000000000000E-002   -4.498120825754035E-029
 -1.170000000000000E-002   -5.219694125991373E-028
 -1.160000000000000E-002   -1.128426773599785E-027
 -1.150000000000000E-002   -1.837666898728105E-027
 -1.140000000000000E-002   -2.600898659311311E-027
 -1.130000000000000E-002   -3.345186570928340E-027
 -1.120000000000000E-002   -3.973451239557052E-027
 -1.110000000000000E-002   -4.367187685631284E-027
 -1.100000000000000E-002   -4.392469318895703E-027
 -1.090000000000000E-002   -3.909654690925267E-027
 -1.080000000000000E-002   -2.786919922343271E-027
 -1.070000000000000E-002   -9.173897752229413E-028
 -1.060000000000000E-002    1.760843678977785E-027
 -1.050000000000000E-002    5.243011655284695E-027
 -1.040000000000000E-002    9.436067045746563E-027
 -1.030000000000000E-002    1.413946830507449E-026
 -1.020000000000000E-002    1.903112226548244E-026
 -1.010000000000000E-002    2.366152304609943E-026
 -1.000000000000000E-002    2.745921508022471E-026
 -9.899999999999999E-003    2.975048314976513E-026
 -9.800000000000000E-003    2.979555172118143E-026
 -9.699999999999999E-003    2.684261959757249E-026
 -9.599999999999999E-003    2.019962228321947E-026
 -9.500000000000000E-003    9.321838797170340E-027
 -9.399999999999999E-003   -6.088726916933749E-027
 -9.299999999999999E-003   -2.597845778721670E-026
 -9.200000000000000E-003   -4.984043801482095E-026
 -9.099999999999999E-003   -7.662679044235355E-026
 -8.999999999999999E-003   -1.046875127585595E-025
 -8.900000000000000E-003   -1.317491922537719E-025
 -8.799999999999999E-003   -1.549469419855632E-025
 -8.699999999999999E-003   -1.709215131032459E-025
 -8.600000000000000E-003   -1.759904341357178E-025
 -8.499999999999999E-003   -1.663978927481399E-025
 -8.399999999999999E-003   -1.386415427031671E-025
 -8.300000000000000E-003   -8.986739849687950E-026
 -8.199999999999999E-003   -1.831449292691680E-026
 -8.100000000000000E-003    7.621718552152969E-026
 -8.000000000000000E-003    1.919122783181844E-025
 -7.899999999999999E-003    3.245433290729664E-025
 -7.800000000000000E-003    4.671828706112137E-025
 -7.699999999999999E-003    6.100782531074077E-025
 -7.599999999999999E-003    7.407431931806854E-025
 -7.499999999999999E-003    8.443144754625753E-025
 -7.399999999999999E-003    9.042106277615036E-025
 -7.299999999999999E-003    9.031138819341773E-025
 -7.199999999999999E-003    8.242727071978158E-025
 -7.100000000000000E-003    6.530944095697498E-025
 -6.999999999999999E-003    3.789658379652404E-025
 -6.899999999999999E-003   -2.795640742390457E-027
 -6.800000000000000E-003   -4.889943300153858E-025
 -6.699999999999999E-003   -1.066775489718968E-024
 -6.599999999999999E-003   -1.712203042798407E-024
 -6.499999999999999E-003   -2.389406010969817E-024
 -6.399999999999999E-003   -3.050502855184021E-024
 -6.299999999999999E-003   -3.636506640945257E-024
 -6.199999999999999E-003   -4.079374813770194E-024
 -6.100000000000000E-003   -4.305320734292385E-024
 -5.999999999999999E-003   -4.239425294944886E-024
 -5.899999999999999E-003   -3.811486413200465E-024
 -5.800000000000000E-003   -2.962941455269090E-024
 -5.699999999999999E-003   -1.654554063707621E-024
 -5.599999999999999E-003    1.255648299984039E-025
 -5.499999999999999E-003    2.354174015492048E-024
 -5.399999999999999E-003    4.966039799621265E-024
 -5.299999999999999E-003    7.848775956242900E-024
 -5.199999999999999E-003    1.084020864601049E-023
 -5.099999999999999E-003    1.372910177490111E-023
 -4.999999999999999E-003    1.625999232412391E-023
 -4.899999999999999E-003    1.814273352163422E-023
 -4.799999999999999E-003    1.906714929202152E-023
 -4.699999999999999E-003    1.872283073942236E-023
 -4.599999999999999E-003    1.682375138463369E-023
 -4.499999999999999E-003    1.313688130614247E-023
 -4.399999999999999E-003    7.513487051812402E-024
 -4.299999999999999E-003   -7.874362173906617E-026
 -4.199999999999999E-003   -9.525125236331554E-024
 -4.099999999999999E-003   -2.053773919127192E-023
 -3.999999999999999E-003   -3.263666847069367E-023
 -3.899999999999999E-003   -4.514198109468165E-023
 -3.799999999999999E-003   -5.717963652762347E-023
 -3.699999999999999E-003   -6.770410840702720E-023
 -3.599999999999999E-003   -7.553991620330383E-023
 -3.499999999999999E-003   -7.944307046043074E-023
 -3.399999999999999E-003   -7.818236659307172E-023
 -3.299999999999999E-003   -7.063852436487369E-023
 -3.199999999999999E-003   -5.591757893740257E-023
 -3.099999999999999E-003   -3.347271400016565E-023
 -2.999999999999999E-003   -3.226924151873017E-024
 -2.899999999999999E-003    3.431301031654480E-023
 -2.799999999999999E-003    7.796225638160515E-023
 -2.699999999999999E-003    1.257951655993751E-022
 -2.599999999999999E-003    1.751261267617987E-022
 -2.499999999999999E-003    2.225451760815014E-022
 -2.399999999999999E-003    2.640179595088215E-022
 -2.299999999999999E-003    2.950563493077521E-022
 -2.199999999999999E-003    3.109620014702590E-022
 -2.099999999999999E-003    3.071399608941470E-022
 -1.999999999999999E-003    2.794730475555692E-022
 -1.899999999999999E-003    2.247414227383091E-022
 -1.799999999999999E-003    1.410644010410018E-022
 -1.699999999999999E-003    2.833524127598406E-023
 -1.599999999999999E-003   -1.113861119013183E-022
 -1.499999999999999E-003   -2.735614710023129E-022
 -1.399999999999999E-003   -4.509851088582515E-022
 -1.299999999999999E-003   -6.337569228592909E-022
 -1.199999999999999E-003   -8.094544186042945E-022
 -1.099999999999999E-003   -9.635314310239034E-022
 -9.999999999999989E-004   -1.079961176014466E-021
 -8.999999999999990E-004   -1.142124155081029E-021
 -7.999999999999990E-004   -1.133925640846728E-021
 -6.999999999999989E-004   -1.041104313810078E-021
 -5.999999999999990E-004   -8.526736257153412E-022
 -4.999999999999989E-004   -5.624132596242889E-022
 -3.999999999999989E-004   -1.703111106102733E-022
 -2.999999999999989E-004    3.161637602572827E-022
 -1.999999999999989E-004    8.810852637577218E-022
 -9.999999999999892E-005    1.499523048328747E-021
  1.084202172485504E-018    2.137550801442991E-021
  1.000000000000011E-004    2.752918565317065E-021
  2.000000000000011E-004    3.296472825707387E-021
  3.000000000000011E-004    3.714364144418898E-021
  4.000000000000011E-004    3.951037414581990E-021
  5.000000000000011E-004    3.952936309782718E-021
  6.000000000000011E-004    3.672792504334317E-021
  7.000000000000011E-004    3.074295528058661E-021
  8.000000000000011E-004    2.136880293447089E-021
  9.000000000000012E-004    8.603012080182600E-022
  1.000000000000001E-003   -7.313760088831283E-022
  1.100000000000001E-003   -2.586770522080344E-021
  1.200000000000001E-003   -4.625581943839702E-021
  1.300000000000001E-003   -6.738761275729634E-021
  1.400000000000001E-003   -8.790786285603657E-021
  1.500000000000001E-003   -1.062428818280862E-020
  1.600000000000001E-003   -1.206712239353511E-020
  1.700000000000001E-003   -1.294185910396716E-020
  1.800000000000001E-003   -1.307744081500642E-020
  1.900000000000001E-003   -1.232259568896900E-020
  2.000000000000001E-003   -1.056036504473623E-020
  2.100000000000001E-003   -7.722907964109869E-021
  2.200000000000001E-003   -3.805562714204969E-021
  2.300000000000001E-003    1.120963449329926E-021
  2.400000000000001E-003    6.901516744724422E-021
  2.500000000000001E-003    1.329175688576228E-020
  2.600000000000001E-003    1.995889296451882E-020
  2.700000000000001E-003    2.648884180695485E-020
  2.800000000000001E-003    3.240050471428955E-020
  2.900000000000001E-003    3.716740646717177E-020
  3.000000000000001E-003    4.024654925554810E-020
  3.100000000000001E-003    4.111365016138986E-020
  3.200000000000001E-003    3.930348854978738E-020
  3.300000000000001E-003    3.445336364333628E-020
  3.400000000000001E-003    2.634711155649466E-020
  3.500000000000001E-003    1.495667796531711E-020
  3.600000000000001E-003    4.778354910454465E-022
  3.700000000000001E-003   -1.664359839230804E-020
  3.800000000000001E-003   -3.569845951762231E-020
  3.900000000000001E-003   -5.571724705972516E-020
  4.000000000000001E-003   -7.549194049961542E-020
  4.100000000000001E-003   -9.361848045149739E-020
  4.200000000000001E-003   -1.085604781482806E-019
  4.300000000000001E-003   -1.187333121886807E-019
  4.400000000000001E-003   -1.226061253855017E-019
  4.500000000000001E-003   -1.188176992299303E-019
  4.600000000000002E-003   -1.063003057174951E-019
  4.700000000000001E-003   -8.440417159547200E-020
  4.800000000000001E-003   -5.301387386411782E-020
  4.900000000000002E-003   -1.264709469288624E-020
  5.000000000000001E-003    3.547412832672601E-020
  5.100000000000001E-003    8.938936537595172E-020
  5.200000000000001E-003    1.464116190634344E-019
  5.300000000000002E-003    2.031912576538364E-019
  5.400000000000001E-003    2.558370692903867E-019
  5.500000000000001E-003    3.000945120681432E-019
  5.600000000000002E-003    3.315784902520417E-019
  5.700000000000001E-003    3.460528822344782E-019
  5.800000000000001E-003    3.397454705143583E-019
  5.900000000000002E-003    3.096813032609183E-019
  6.000000000000001E-003    2.540149017120373E-019
  6.100000000000001E-003    1.723377352139979E-019
  6.200000000000002E-003    6.593582676012874E-020
  6.300000000000002E-003   -6.202832999146142E-020
  6.400000000000001E-003   -2.064335624311278E-019
  6.500000000000001E-003   -3.602392410518283E-019
  6.600000000000002E-003   -5.146618877768409E-019
  6.700000000000001E-003   -6.594977112792746E-019
  6.800000000000001E-003   -7.835923034185412E-019
  6.900000000000002E-003   -8.754472476319844E-019
  7.000000000000001E-003   -9.239425525374121E-019
  7.100000000000001E-003   -9.191438704957835E-019
  7.200000000000002E-003   -8.531515806825891E-019
  7.300000000000002E-003   -7.209403337181352E-019
  7.400000000000001E-003   -5.211305578514422E-019
  7.500000000000001E-003   -2.566293219830370E-019
  7.600000000000002E-003    6.492221858751124E-020
  7.700000000000001E-003    4.309539587120182E-019
  7.800000000000001E-003    8.240734398638501E-019
  7.900000000000001E-003    1.222513315463628E-018
  8.000000000000002E-003    1.600935536173937E-018
  8.100000000000001E-003    1.931593002156581E-018
  8.200000000000001E-003    2.185820012645882E-018
  8.300000000000002E-003    2.335798273780976E-018
  8.400000000000001E-003    2.356521568539663E-018
  8.500000000000002E-003    2.227852371183982E-018
  8.600000000000002E-003    1.936549217576136E-018
  8.700000000000001E-003    1.478122304722831E-018
  8.800000000000002E-003    8.583704770790873E-019
  8.900000000000002E-003    9.445266983476527E-020
  9.000000000000001E-003   -7.846417874408039E-019
  9.100000000000002E-003   -1.738340672064607E-018
  9.200000000000002E-003   -2.715534255272239E-018
  9.300000000000001E-003   -3.656460311518275E-018
  9.400000000000002E-003   -4.495418403893981E-018
  9.500000000000001E-003   -5.164245740412370E-018
  9.600000000000001E-003   -5.596427810061183E-018
  9.700000000000002E-003   -5.731658352773101E-018
  9.800000000000001E-003   -5.520607522882934E-018
  9.900000000000001E-003   -4.929611152444416E-018
  1.000000000000000E-002   -3.944961318659001E-018
  1.010000000000000E-002   -2.576462377834799E-018
  1.020000000000000E-002   -8.599232537131207E-019
  1.030000000000000E-002    1.141719566407383E-018
  1.040000000000000E-002    3.338901121110481E-018
  1.050000000000000E-002    5.617721416361650E-018
  1.060000000000000E-002    7.844124658007161E-018
  1.070000000000000E-002    9.869924515284973E-018
  1.080000000000000E-002    1.154052308864122E-017
  1.090000000000000E-002    1.270402905580619E-017
  1.100000000000000E-002    1.322136585971009E-017
  1.110000000000000E-002    1.297681953602323E-017
  1.120000000000000E-002    1.188841647191004E-017
  1.130000000000000E-002    9.917410353319229E-018
  1.140000000000000E-002    7.076171621303758E-018
  1.150000000000000E-002    3.433756839596924E-018
  1.160000000000000E-002   -8.814821588476055E-019
  1.170000000000000E-002   -5.682777179100773E-018
  1.180000000000000E-002   -1.072967533196279E-017
  1.190000000000000E-002   -1.573678999386083E-017
  1.200000000000000E-002   -2.038647094233604E-017
  1.210000000000000E-002   -2.434505767189902E-017
  1.220000000000000E-002   -2.728207463116799E-017
  1.230000000000000E-002   -2.889150697093032E-017
  1.240000000000000E-002   -2.891401393385778E-017
  1.250000000000000E-002   -2.715875174106871E-017
  1.260000000000000E-002   -2.352340139083496E-017
  1.270000000000000E-002   -1.801088676613690E-017
  1.280000000000000E-002   -1.074135893330891E-017
  1.290000000000000E-002   -1.958126071884190E-018
  1.300000000000000E-002    7.973481746476672E-018
  1.310000000000000E-002    1.857509778917144E-017
  1.320000000000000E-002    2.927236406324956E-017
  1.330000000000000E-002    3.941994742078556E-017
  1.340000000000000E-002    4.833370567719359E-017
  1.350000000000000E-002    5.532884378261824E-017
  1.360000000000000E-002    5.976227999654069E-017
  1.370000000000000E-002    6.107698713190898E-017
  1.380000000000000E-002    5.884575801325817E-017
  1.390000000000000E-002    5.281162433470967E-017
  1.400000000000000E-002    4.292201661695944E-017
  1.410000000000000E-002    2.935390856163357E-017
  1.420000000000000E-002    1.252743855486463E-017
  1.430000000000000E-002   -6.893998339759290E-018
  1.440000000000000E-002   -2.801864702973702E-017
  1.450000000000000E-002   -4.975679779098142E-017
  1.460000000000000E-002   -7.086645553098378E-017
  1.470000000000000E-002   -9.001300317982380E-017
  1.480000000000000E-002   -1.058405866190529E-016
  1.490000000000000E-002   -1.170520473525490E-016
  1.500000000000000E-002   -1.224932944672729E-016
  1.510000000000000E-002   -1.212375319085176E-016
  1.520000000000000E-002   -1.126640796179280E-016
  1.530000000000000E-002   -9.652660549094197E-017
  1.540000000000000E-002   -7.300549403376847E-017
  1.550000000000000E-002   -4.273972635690902E-017
  1.560000000000000E-002   -6.834309386903053E-018
  1.570000000000000E-002    3.315946856346000E-017
  1.580000000000000E-002    7.529243696120534E-017
  1.590000000000000E-002    1.172944130980594E-016
  1.600000000000000E-002    1.566775895290405E-016
  1.610000000000000E-002    1.908629771745271E-016
  1.620000000000000E-002    2.173241460442866E-016
  1.630000000000000E-002    2.337418552552347E-016
  1.640000000000000E-002    2.381610316009499E-016
  1.650000000000000E-002    2.291410817631986E-016
  1.660000000000000E-002    2.058901563973470E-016
  1.670000000000000E-002    1.683738053591828E-016
  1.680000000000000E-002    1.173892600040342E-016
  1.690000000000000E-002    5.459774545592474E-017
  1.700000000000000E-002   -1.749075767245643E-017
  1.710000000000000E-002   -9.558423421916688E-017
  1.720000000000000E-002   -1.757271220022837E-016
  1.730000000000000E-002   -2.534687746415497E-016
  1.740000000000000E-002   -3.240765561134557E-016
  1.750000000000000E-002   -3.827849949863333E-016
  1.760000000000000E-002   -4.250699108432584E-016
  1.770000000000000E-002   -4.469338367560176E-016
  1.780000000000000E-002   -4.451869312635890E-016
  1.790000000000000E-002   -4.177067349869406E-016
  1.800000000000000E-002   -3.636597633966363E-016
  1.810000000000000E-002   -2.836684512799725E-016
  1.820000000000000E-002   -1.799089834457439E-016
  1.830000000000000E-002   -5.612799084848943E-017
  1.840000000000000E-002    8.243020117020103E-017
  1.850000000000000E-002    2.291894142762674E-016
  1.860000000000000E-002    3.764994729306197E-016
  1.870000000000000E-002    5.159792354372740E-016