 -4.000000000000000E-002    0.000000000000000E+000
 -3.990000000000000E-002    0.000000000000000E+000
 -3.980000000000000E-002    0.000000000000000E+000
 -3.970000000000000E-002    0.000000000000000E+000
 -3.960000000000000E-002    0.000000000000000E+000
 -3.950000000000000E-002    7.325966296009687E-021
 -3.940000000000000E-002    7.529338197994828E-020
 -3.930000000000000E-002    4.193191261686108E-019
 -3.920000000000000E-002    1.675467235195868E-018
 -3.910000000000000E-002    5.369868413363504E-018
 -3.900000000000000E-002    1.464039218037357E-017
 -3.890000000000000E-002    3.517749855312542E-017
 -3.880000000000000E-002    7.621438910469851E-017
 -3.870000000000000E-002    1.511914971375898E-016
 -3.860000000000000E-002    2.774592738745259E-016
 -3.850000000000000E-002    4.741105171738435E-016
 -3.840000000000000E-002    7.568258167744917E-016
 -3.830000000000000E-002    1.128590888200533E-015
 -3.820000000000000E-002    1.565438748338426E-015
 -3.810000000000000E-002    1.997105763810196E-015
 -3.800000000000000E-002    2.283759979293989E-015
 -3.790000000000000E-002    2.191730892270332E-015
 -3.780000000000000E-002    1.373309837590074E-015
 -3.770000000000000E-002   -6.421435737931935E-016
 -3.760000000000000E-002   -4.436816021367828E-015
 -3.750000000000000E-002   -1.066309614011303E-014
 -3.740000000000000E-002   -1.996355134227241E-014
 -3.730000000000000E-002   -3.284665817246917E-014
 -3.720000000000000E-002   -4.951832803862932E-014
 -3.710000000000000E-002   -6.967737950048850E-014
 -3.700000000000000E-002   -9.229286870372928E-014
 -3.690000000000000E-002   -1.153919481304350E-013
 -3.680000000000000E-002   -1.358964424225510E-013
 -3.670000000000000E-002   -1.495531114616852E-013
 -3.660000000000000E-002   -1.510043248323727E-013
 -3.650000000000000E-002   -1.340406544454005E-013
 -3.640000000000000E-002   -9.206343424007885E-014
 -3.630000000000000E-002   -1.876319693957387E-014
 -3.620000000000000E-002    9.100894881094984E-014
 -3.610000000000000E-002    2.402350173382989E-013
 -3.600000000000000E-002    4.286820979410717E-013
 -3.590000000000000E-002    6.519371199255312E-013
 -3.580000000000000E-002    9.006710329205201E-013
 -3.570000000000000E-002    1.160285230305294E-012
 -3.560000000000000E-002    1.411079841762071E-012
 -3.550000000000000E-002    1.629047392385290E-012
 -3.540000000000000E-002    1.787336248748372E-012
 -3.530000000000000E-002    1.858351909531027E-012
 -3.520000000000000E-002    1.816372886156361E-012
 -3.510000000000000E-002    1.640465782224151E-012
 -3.500000000000000E-002    1.317402645449196E-012
 -3.490000000000000E-002    8.442241933277835E-013
 -3.480000000000000E-002    2.300674503571728E-013
 -3.470000000000000E-002   -5.030940171913630E-013
 -3.460000000000000E-002   -1.321085116120370E-012
 -3.450000000000000E-002   -2.179688313194956E-012
 -3.440000000000000E-002   -3.028314315725736E-012
 -3.430000000000000E-002   -3.814969922101187E-012
 -3.420000000000000E-002   -4.492100063893582E-012
 -3.410000000000000E-002   -5.022687597761537E-012
 -3.400000000000000E-002   -5.385856878279221E-012
 -3.390000000000000E-002   -5.581145638618057E-012
 -3.380000000000000E-002   -5.630630871847181E-012
 -3.370000000000000E-002   -5.578227647511089E-012
 -3.360000000000000E-002   -5.485701152389795E-012
 -3.350000000000000E-002   -5.425277265090690E-012
 -3.340000000000000E-002   -5.469131777903916E-012
 -3.330000000000000E-002   -5.676488513729159E-012
 -3.320000000000000E-002   -6.079474744433812E-012
 -3.310000000000000E-002   -6.669251404510712E-012
 -3.300000000000000E-002   -7.384194167746607E-012
 -3.290000000000000E-002   -8.101977410479730E-012
 -3.280000000000000E-002   -8.637310195696561E-012
 -3.270000000000000E-002   -8.746770547375840E-012
 -3.260000000000000E-002   -8.141633884778788E-012
 -3.250000000000000E-002   -6.508931191832409E-012
 -3.240000000000000E-002   -3.540087005950795E-012
 -3.230000000000000E-002    1.034336324763517E-012
 -3.220000000000000E-002    7.406189185631226E-012
 -3.210000000000000E-002    1.565066302085908E-011
 -3.200000000000000E-002    2.569031634832497E-011
 -3.190000000000000E-002    3.726607804668600E-011
 -3.180000000000000E-002    4.991915025630054E-011
 -3.170000000000000E-002    6.298722435488333E-011
 -3.160000000000000E-002    7.561765517781954E-011
 -3.150000000000000E-002    8.679908003937213E-011
 -3.140000000000000E-002    9.541164127216326E-011
 -3.130000000000000E-002    1.002942899564328E-010
 -3.120000000000000E-002    1.003261167322346E-010
 -3.110000000000000E-002    9.451713744698892E-011
 -3.100000000000000E-002    8.210249393011117E-011
 -3.090000000000000E-002    6.263333050957277E-011
 -3.080000000000000E-002    3.605678823588459E-011
 -3.070000000000000E-002    2.777796163478005E-012
 -3.060000000000000E-002   -3.630409640907396E-011
 -3.050000000000000E-002   -7.978851719039753E-011
 -3.040000000000000E-002   -1.258024851458481E-010
 -3.030000000000000E-002   -1.720648200032474E-010
 -3.020000000000000E-002   -2.159859171598069E-010
 -3.010000000000000E-002   -2.547994610389985E-010
 -3.000000000000000E-002   -2.857200157543255E-010
 -2.990000000000000E-002   -3.061181012662143E-010
 -2.980000000000000E-002   -3.137021226366856E-010
 -2.970000000000000E-002   -3.066954856222713E-010
 -2.960000000000000E-002   -2.839965817315858E-010
 -2.950000000000000E-002   -2.453088846972580E-010
 -2.940000000000000E-002   -1.912304803789013E-010
 -2.930000000000000E-002   -1.232934836430478E-010
 -2.920000000000000E-002   -4.394717751404654E-011
 -2.910000000000000E-002    4.351841248156409E-011
 -2.900000000000000E-002    1.351075817937939E-010
 -2.890000000000000E-002    2.263076256854764E-010
 -2.880000000000000E-002    3.123224511466325E-010
 -2.870000000000000E-002    3.883385915534462E-010
 -2.860000000000000E-002    4.498081263852610E-010
 -2.850000000000000E-002    4.927316953310953E-010
 -2.840000000000000E-002    5.139226737984874E-010
 -2.830000000000000E-002    5.112356089560063E-010
 -2.820000000000000E-002    4.837422556182731E-010
 -2.810000000000000E-002    4.318419600435836E-010
 -2.800000000000000E-002    3.572975534798212E-010
 -2.790000000000000E-002    2.631915617118720E-010
 -2.780000000000000E-002    1.538032904945225E-010
 -2.770000000000000E-002    3.441240002811776E-011
 -2.760000000000000E-002   -8.896118893762379E-011
 -2.750000000000000E-002   -2.098664927773766E-010
 -2.740000000000000E-002   -3.217626738124390E-010
 -2.730000000000000E-002   -4.183731741451448E-010
 -2.720000000000000E-002   -4.940337048704933E-010
 -2.710000000000000E-002   -5.440153533456625E-010
 -2.700000000000000E-002   -5.648070869798209E-010
 -2.690000000000000E-002   -5.543443495732528E-010
 -2.680000000000000E-002   -5.121745030813118E-010
 -2.670000000000000E-002   -4.395541354487874E-010
 -2.660000000000000E-002   -3.394756030201721E-010
 -2.650000000000000E-002   -2.166255354151963E-010
 -2.640000000000000E-002   -7.727775680671589E-011
 -2.630000000000000E-002    7.087389051972681E-011
 -2.620000000000000E-002    2.189384450498627E-010
 -2.610000000000000E-002    3.571021356884954E-010
 -2.600000000000000E-002    4.749517696281020E-010
 -2.590000000000000E-002    5.618458425997278E-010
 -2.580000000000000E-002    6.073338626527406E-010
 -2.570000000000000E-002    6.016244079493043E-010
 -2.560000000000000E-002    5.361010238378031E-010
 -2.550000000000000E-002    4.038831322598174E-010
 -2.540000000000000E-002    2.004234012630390E-010
 -2.530000000000000E-002   -7.587299058027532E-011
 -2.520000000000000E-002   -4.230296862729209E-010
 -2.510000000000000E-002   -8.349126339032963E-010
 -2.500000000000000E-002   -1.300716502465570E-009
 -2.490000000000000E-002   -1.804571540633005E-009
 -2.480000000000000E-002   -2.325325493146187E-009
 -2.470000000000000E-002   -2.836554939809429E-009
 -2.460000000000000E-002   -3.306861172094347E-009
 -2.450000000000000E-002   -3.700496671565276E-009
 -2.440000000000000E-002   -3.978353507531973E-009
 -2.430000000000000E-002   -4.099332588763948E-009
 -2.420000000000000E-002   -4.022083561147468E-009
 -2.410000000000000E-002   -3.707083339182663E-009
 -2.400000000000000E-002   -3.118990659582558E-009
 -2.390000000000000E-002   -2.229187931023458E-009
 -2.380000000000000E-002   -1.018393308312898E-009
 -2.370000000000000E-002    5.207917559836159E-010
 -2.360000000000000E-002    2.381553009605267E-009
 -2.350000000000000E-002    4.540906127744274E-009
 -2.340000000000000E-002    6.958270009398467E-009
 -2.330000000000000E-002    9.574705464842761E-009
 -2.320000000000000E-002    1.231294318364912E-008
 -2.310000000000000E-002    1.507827876593370E-008
 -2.300000000000000E-002    1.776038790980579E-008
 -2.290000000000000E-002    2.023605671444483E-008
 -2.280000000000000E-002    2.237279229096794E-008
 -2.270000000000000E-002    2.403321296490690E-008
 -2.260000000000000E-002    2.508010397289527E-008
 -2.250000000000000E-002    2.538197035179071E-008
 -2.240000000000000E-002    2.481889454725234E-008
 -2.230000000000000E-002    2.328850596689405E-008
 -2.220000000000000E-002    2.071185537923856E-008
 -2.210000000000000E-002    1.703898744224538E-008
 -2.200000000000000E-002    1.225404112022923E-008
 -2.190000000000000E-002    6.379700729949902E-009
 -2.180000000000000E-002   -5.191234068536054E-010
 -2.170000000000000E-002   -8.332487467540787E-009
 -2.160000000000000E-002   -1.690355538788722E-008
 -2.150000000000000E-002   -2.602772656613594E-008
 -2.140000000000000E-002   -3.545275554563808E-008
 -2.130000000000000E-002   -4.487985047461783E-008
 -2.120000000000000E-002   -5.396574412474848E-008
 -2.110000000000000E-002   -6.232564479833957E-008
 -2.100000000000000E-002   -6.953705474317415E-008
 -2.090000000000000E-002   -7.514432477184796E-008
 -2.080000000000000E-002   -7.866391276977211E-008
 -2.070000000000000E-002   -7.959018205799128E-008
 -2.060000000000000E-002   -7.740168915131046E-008
 -2.050000000000000E-002   -7.156774910481634E-008
 -2.040000000000000E-002   -6.155517961027309E-008
 -2.030000000000000E-002   -4.683499331286561E-008
 -2.020000000000000E-002   -2.688889296785078E-008
 -2.010000000000000E-002   -1.215325046055074E-009
 -2.000000000000000E-002    3.066511031312550E-008
 -1.990000000000000E-002    6.920506038604957E-008
 -1.980000000000000E-002    1.148269325296733E-007
 -1.970000000000000E-002    1.679205509048447E-007
 -1.960000000000000E-002    2.288421043639018E-007
 -1.950000000000000E-002    2.979146277172659E-007
 -1.940000000000000E-002    3.754297038396160E-007
 -1.930000000000000E-002    4.616506839930038E-007
 -1.920000000000000E-002    5.568170627515407E-007
 -1.910000000000000E-002    6.611500728776131E-007
 -1.900000000000000E-002    7.748590042651939E-007
 -1.890000000000000E-002    8.981484767170266E-007
 -1.880000000000000E-002    1.031225588630899E-006
 -1.870000000000000E-002    1.174308112401420E-006
 -1.860000000000000E-002    1.327631591924619E-006
 -1.850000000000000E-002    1.491457456002376E-006
 -1.840000000000000E-002    1.666079601692716E-006
 -1.830000000000000E-002    1.851831054451058E-006
 -1.820000000000000E-002    2.049090997371607E-006
 -1.810000000000000E-002    2.258289381688338E-006
 -1.800000000000000E-002    2.479913333260422E-006
 -1.790000000000000E-002    2.714511041290344E-006
 -1.780000000000000E-002    2.962697152419356E-006
 -1.770000000000000E-002    3.225156755742765E-006
 -1.760000000000000E-002    3.502649063805113E-006
 -1.750000000000000E-002    3.796011124784935E-006
 -1.740000000000000E-002    4.106160797949425E-006
 -1.730000000000000E-002    4.434099237760658E-006
 -1.720000000000000E-002    4.780912261473485E-006
 -1.710000000000000E-002    5.147771307341595E-006
 -1.700000000000000E-002    5.535933164480547E-006
 -1.690000000000000E-002    5.946738549974331E-006
 -1.680000000000000E-002    6.381609555078991E-006
 -1.670000000000000E-002    6.842046496284191E-006
 -1.660000000000000E-002    7.329624160867509E-006
 -1.650000000000000E-002    7.845988450105446E-006
 -1.640000000000000E-002    8.392850792022081E-006
 -1.630000000000000E-002    8.971986326670477E-006
 -1.620000000000000E-002    9.585231655227435E-006
 -1.610000000000000E-002    1.023448698393800E-005
 -1.600000000000000E-002    1.092171539769374E-005
 -1.590000000000000E-002    1.164895212873622E-005
 -1.580000000000000E-002    1.241831069576102E-005
 -1.570000000000000E-002    1.323199771935137E-005
 -1.560000000000000E-002    1.409232644882468E-005
 -1.550000000000000E-002    1.500173452875576E-005
 -1.540000000000000E-002    1.596280266105843E-005
 -1.530000000000000E-002    1.697827715571171E-005
 -1.520000000000000E-002    1.805108926067342E-005
 -1.510000000000000E-002    1.918437182025836E-005
 -1.500000000000000E-002    2.038148025350654E-005
 -1.490000000000000E-002    2.164600313995670E-005
 -1.480000000000000E-002    2.298177331485833E-005
 -1.470000000000000E-002    2.439287392088753E-005
 -1.460000000000000E-002    2.588364158644844E-005
 -1.450000000000000E-002    2.745865717262109E-005
 -1.440000000000000E-002    2.912274674589097E-005
 -1.430000000000000E-002    3.088096876648599E-005
 -1.420000000000000E-002    3.273860344122908E-005
 -1.410000000000000E-002    3.470114083841222E-005
 -1.400000000000000E-002    3.677428340191959E-005
 -1.390000000000000E-002    3.896391958809504E-005
 -1.380000000000000E-002    4.127613791228985E-005
 -1.370000000000000E-002    4.371722329765900E-005
 -1.360000000000000E-002    4.629366415699246E-005
 -1.350000000000000E-002    4.901216426686264E-005
 -1.340000000000000E-002    5.187966592699938E-005
 -1.330000000000000E-002    5.490336789225823E-005
 -1.320000000000000E-002    5.809075285679567E-005
 -1.310000000000000E-002    6.144961695180652E-005
 -1.300000000000000E-002    6.498809999624429E-005
 -1.290000000000000E-002    6.871470187565190E-005
 -1.280000000000000E-002    7.263833965190415E-005
 -1.270000000000000E-002    7.676833976465498E-005
 -1.260000000000000E-002    8.111447829948495E-005
 -1.250000000000000E-002    8.568699842442482E-005
 -1.240000000000000E-002    9.049662881374033E-005
 -1.230000000000000E-002    9.555459124337735E-005
 -1.220000000000000E-002    1.008726079450180E-004
 -1.210000000000000E-002    1.064629307934195E-004
 -1.200000000000000E-002    1.123383341062798E-004
 -1.190000000000000E-002    1.185121432512661E-004
 -1.180000000000000E-002    1.249982504941217E-004
 -1.170000000000000E-002    1.318111261051575E-004
 -1.160000000000000E-002    1.389658394817586E-004
 -1.150000000000000E-002    1.464781154121162E-004
 -1.140000000000000E-002    1.543643186938350E-004
 -1.130000000000000E-002    1.626415325628599E-004
 -1.120000000000000E-002    1.713275506856073E-004
 -1.110000000000000E-002    1.804409099281664E-004
 -1.100000000000000E-002    1.900009598787488E-004
 -1.090000000000000E-002    2.000278721038051E-004
 -1.080000000000000E-002    2.105426251143921E-004
 -1.070000000000000E-002    2.215670635303751E-004
 -1.060000000000000E-002    2.331238883215602E-004
 -1.050000000000000E-002    2.452366790202644E-004
 -1.040000000000000E-002    2.579298941252193E-004
 -1.030000000000000E-002    2.712288703058319E-004
 -1.020000000000000E-002    2.851598055469367E-004
 -1.010000000000000E-002    2.997498264331949E-004
 -1.000000000000000E-002    3.150269059117414E-004
 -9.899999999999999E-003    3.310199687963520E-004
 -9.800000000000000E-003    3.477588537889801E-004
 -9.699999999999999E-003    3.652743276925998E-004
 -9.599999999999999E-003    3.835982213560486E-004
 -9.500000000000000E-003    4.027633260291710E-004
 -9.399999999999999E-003    4.228035091773075E-004
 -9.299999999999999E-003    4.437537792828219E-004
 -9.200000000000000E-003    4.656503303164873E-004
 -9.099999999999999E-003    4.885305540458894E-004
 -8.999999999999999E-003    5.124331378817452E-004
 -8.900000000000000E-003    5.373980948227530E-004
 -8.799999999999999E-003    5.634667546826262E-004
 -8.699999999999999E-003    5.906819154083992E-004
 -8.600000000000000E-003    6.190877633098632E-004
 -8.499999999999999E-003    6.487299383200549E-004
 -8.399999999999999E-003    6.796554996068075E-004
 -8.300000000000000E-003    7.119131081262792E-004
 -8.199999999999999E-003    7.455528845884538E-004
 -8.100000000000000E-003    7.806264482421166E-004
 -8.000000000000000E-003    8.171870178203699E-004
 -7.899999999999999E-003    8.552893543259014E-004
 -7.800000000000000E-003    8.949897588358631E-004
 -7.699999999999999E-003    9.363461759345564E-004
 -7.599999999999999E-003    9.794182011906821E-004
 -7.499999999999999E-003    1.024267071963920E-003
 -7.399999999999999E-003    1.070955759903170E-003
 -7.299999999999999E-003    1.119549005463323E-003
 -7.199999999999999E-003    1.170113394027249E-003
 -7.100000000000000E-003    1.222717121527657E-003
 -6.999999999999999E-003    1.277430310518676E-003
 -6.899999999999999E-003    1.334325011206172E-003
 -6.800000000000000E-003    1.393475093627402E-003
 -6.699999999999999E-003    1.454956173382691E-003
 -6.599999999999999E-003    1.518845849712959E-003
 -6.499999999999999E-003    1.585223625866111E-003
 -6.399999999999999E-003    1.654170768633336E-003
 -6.299999999999999E-003    1.725770466289837E-003
 -6.199999999999999E-003    1.800107654455410E-003
 -6.100000000000000E-003    1.877269045716564E-003
 -5.999999999999999E-003    1.957343294491604E-003
 -5.899999999999999E-003    2.040421017433903E-003
 -5.800000000000000E-003    2.126594316083333E-003
 -5.699999999999999E-003    2.215957482843144E-003
 -5.599999999999999E-003    2.308606434092411E-003
 -5.499999999999999E-003    2.404639316213132E-003
 -5.399999999999999E-003    2.504155745872829E-003
 -5.299999999999999E-003    2.607257376826664E-003
 -5.199999999999999E-003    2.714047818552788E-003
 -5.099999999999999E-003    2.824632950627039E-003
 -4.999999999999999E-003    2.939120104177877E-003
 -4.899999999999999E-003    3.057618856504503E-003
 -4.799999999999999E-003    3.180240438005015E-003
 -4.699999999999999E-003    3.307098148407884E-003
 -4.599999999999999E-003    3.438306889752410E-003
 -4.499999999999999E-003    3.573983752570516E-003
 -4.399999999999999E-003    3.714247351617479E-003
 -4.299999999999999E-003    3.859217707867335E-003
 -4.199999999999999E-003    4.009016427715024E-003
 -4.099999999999999E-003    4.163767209548706E-003
 -3.999999999999999E-003    4.323594975102386E-003
 -3.899999999999999E-003    4.488625656168485E-003
 -3.799999999999999E-003    4.658986773827384E-003
 -3.699999999999999E-003    4.834807382235608E-003
 -3.599999999999999E-003    5.016216674668233E-003
 -3.499999999999999E-003    5.203345882015457E-003
 -3.399999999999999E-003    5.396326717132242E-003
 -3.299999999999999E-003    5.595291597665897E-003
 -3.199999999999999E-003    5.800374300857812E-003
 -3.099999999999999E-003    6.011708294876869E-003
 -2.999999999999999E-003    6.229428862304711E-003
 -2.899999999999999E-003    6.453670291070182E-003
 -2.799999999999999E-003    6.684568686241295E-003
 -2.699999999999999E-003    6.922259045884266E-003
 -2.599999999999999E-003    7.166877171908383E-003
 -2.499999999999999E-003    7.418559213301231E-003
 -2.399999999999999E-003    7.677440560414465E-003
 -2.299999999999999E-003    7.943656104157464E-003
 -2.199999999999999E-003    8.217341078637421E-003
 -2.099999999999999E-003    8.498628949134120E-003
 -1.999999999999999E-003    8.787653346600550E-003
 -1.899999999999999E-003    9.084547161387941E-003
 -1.799999999999999E-003    9.389442005260656E-003
 -1.699999999999999E-003    9.702468149582867E-003
 -1.599999999999999E-003    1.002375358112883E-002
 -1.499999999999999E-003    1.035342643766535E-002
 -1.399999999999999E-003    1.069161254243456E-002
 -1.299999999999999E-003    1.103843456314104E-002
 -1.199999999999999E-003    1.139401395804766E-002
 -1.099999999999999E-003    1.175846907266025E-002
 -9.999999999999989E-004    1.213191575512755E-002
 -8.999999999999990E-004    1.251446739411010E-002
 -7.999999999999990E-004    1.290623238647581E-002
 -6.999999999999989E-004    1.330731713955728E-002
 -5.999999999999990E-004    1.371782318114943E-002
 -4.999999999999989E-004    1.413784824736269E-002
 -3.999999999999989E-004    1.456748587985889E-002
 -2.999999999999989E-004    1.500682401236105E-002
 -1.999999999999989E-004    1.545594574642828E-002
 -9.999999999999892E-005    1.591492972876106E-002
  1.084202172485504E-018    1.638384706015676E-002
  1.000000000000011E-004    1.686276468111395E-002
  2.000000000000011E-004    1.735174227019304E-002
  3.000000000000011E-004    1.785083473984930E-002
  4.000000000000011E-004    1.836008807957404E-002
  5.000000000000011E-004    1.887954264808912E-002
  6.000000000000011E-004    1.940923141639046E-002
  7.000000000000011E-004    1.994917803066072E-002
  8.000000000000011E-004    2.049940047095223E-002
  9.000000000000012E-004    2.105990725142416E-002
  1.000000000000001E-003    2.163069871709044E-002
  1.100000000000001E-003    2.221176625889642E-002
  1.200000000000001E-003    2.280309205136546E-002
  1.300000000000001E-003    2.340464918252695E-002
  1.400000000000001E-003    2.401639799175807E-002
  1.500000000000001E-003    2.463829202260953E-002
  1.600000000000001E-003    2.527027210486433E-002
  1.700000000000001E-003    2.591226932836983E-002
  1.800000000000001E-003    2.656420091335816E-002
  1.900000000000001E-003    2.722597574655904E-002
  2.000000000000001E-003    2.789748850893100E-002
  2.100000000000001E-003    2.857862222557496E-002
  2.200000000000001E-003    2.926924724584377E-002
  2.300000000000001E-003    2.996921946989983E-002
  2.400000000000001E-003    3.067838209211729E-002
  2.500000000000001E-003    3.139656627416226E-002
  2.600000000000001E-003    3.212358435762658E-002
  2.700000000000001E-003    3.285923999797769E-002
  2.800000000000001E-003    3.360331862130211E-002
  2.900000000000001E-003    3.435559274170221E-002
  3.000000000000001E-003    3.511581667881210E-002
  3.100000000000001E-003    3.588373075698711E-002
  3.200000000000001E-003    3.665905973105306E-002
  3.300000000000001E-003    3.744151184180688E-002
  3.400000000000001E-003    3.823077839144207E-002
  3.500000000000001E-003    3.902653091484680E-002
  3.600000000000001E-003    3.982842829325044E-002
  3.700000000000001E-003    4.063611277634302E-002
  3.800000000000001E-003    4.144920473446535E-002
  3.900000000000001E-003    4.226731140083551E-002
  4.000000000000001E-003    4.309001881671505E-002
  4.100000000000001E-003    4.391689617650631E-002
  4.200000000000001E-003    4.474749507448098E-002
  4.300000000000001E-003    4.558134844311315E-002
  4.400000000000001E-003    4.641797107578060E-002
  4.500000000000001E-003    4.725685961032991E-002
  4.600000000000002E-003    4.809749342111165E-002
  4.700000000000001E-003    4.893933137152588E-002
  4.800000000000001E-003    4.978181295118626E-002
  4.900000000000002E-003    5.062436057762568E-002
  5.000000000000001E-003    5.146637660416350E-002
  5.100000000000001E-003    5.230724391827879E-002
  5.200000000000001E-003    5.314633293191370E-002
  5.300000000000002E-003    5.398298412042637E-002
  5.400000000000001E-003    5.481652760096948E-002
  5.500000000000001E-003    5.564627294938109E-002
  5.600000000000002E-003    5.647151101029464E-002
  5.700000000000001E-003    5.729151215207004E-002
  5.800000000000001E-003    5.810552793399954E-002
  5.900000000000002E-003    5.891279652986474E-002
  6.000000000000001E-003    5.971253527752612E-002
  6.100000000000001E-003    6.050394200846447E-002
  6.200000000000002E-003    6.128619959507629E-002
  6.300000000000002E-003    6.205847415067339E-002
  6.400000000000001E-003    6.281991034364579E-002
  6.500000000000001E-003    6.356964217214713E-002
  6.600000000000002E-003    6.430678825738480E-002
  6.700000000000001E-003    6.503044335371581E-002
  6.800000000000001E-003    6.573969533109375E-002
  6.900000000000002E-003    6.643361893808926E-002
  7.000000000000001E-003    6.711126406342953E-002
  7.100000000000001E-003    6.777167558688195E-002
  7.200000000000002E-003    6.841388365459203E-002
  7.300000000000002E-003    6.903690279150147E-002
  7.400000000000001E-003    6.963974436656097E-002
  7.500000000000001E-003    7.022139657662047E-002
  7.600000000000002E-003    7.078084219307446E-002
  7.700000000000001E-003    7.131705368796119E-002
  7.800000000000001E-003    7.182899411479013E-002
  7.900000000000001E-003    7.231562429632415E-002
  8.000000000000002E-003    7.277588336843263E-002
  8.100000000000001E-003    7.320871583920556E-002
  8.200000000000001E-003    7.361305493631436E-002
  8.300000000000002E-003    7.398782715152735E-002
  8.400000000000001E-003    7.433196343481420E-002
  8.500000000000002E-003    7.464438067364465E-002
  8.600000000000002E-003    7.492399698237187E-002
  8.700000000000001E-003    7.516973168512332E-002
  8.800000000000002E-003    7.538050110877219E-002
  8.900000000000002E-003    7.555522492959581E-002
  9.000000000000001E-003    7.569281957584117E-002
  9.100000000000002E-003    7.579220495589145E-002
  9.200000000000002E-003    7.585230697169341E-002
  9.300000000000001E-003    7.587205483399227E-002
  9.400000000000002E-003    7.585038143915872E-002
  9.500000000000001E-003    7.578623164525738E-002
  9.600000000000001E-003    7.567855136315912E-002
  9.700000000000002E-003    7.552630432043045E-002
  9.800000000000001E-003    7.532846312072823E-002
  9.900000000000001E-003    7.508400916381135E-002
  1.000000000000000E-002    7.479193521534590E-002
  1.010000000000000E-002    7.445125264295697E-002
  1.020000000000000E-002    7.406098329351191E-002
  1.030000000000000E-002    7.362016742969227E-002
  1.040000000000000E-002    7.312786688350301E-002
  1.050000000000000E-002    7.258316366946882E-002
  1.060000000000000E-002    7.198515419423787E-002
  1.070000000000000E-002    7.133295751971758E-002
  1.080000000000000E-002    7.062571744437052E-002
  1.090000000000000E-002    6.986260664233239E-002
  1.100000000000000E-002    6.904281517291430E-002
  1.110000000000000E-002    6.816556888542601E-002
  1.120000000000000E-002    6.723011492065878E-002
  1.130000000000000E-002    6.623573187013092E-002
  1.140000000000000E-002    6.518172675434014E-002
  1.150000000000000E-002    6.406744104262971E-002
  1.160000000000000E-002    6.289224934932053E-002
  1.170000000000000E-002    6.165556209441373E-002
  1.180000000000000E-002    6.035682058812693E-002
  1.190000000000000E-002    5.899550677491834E-002
  1.200000000000000E-002    5.757113802322714E-002
  1.210000000000000E-002    5.608326861310921E-002
  1.220000000000000E-002    5.453149685832650E-002
  1.230000000000000E-002    5.291546630952479E-002
  1.240000000000000E-002    5.123485464218117E-002
  1.250000000000000E-002    4.948938655594668E-002
  1.260000000000000E-002    4.767883389084852E-002
  1.270000000000000E-002    4.580301148454645E-002
  1.280000000000000E-002    4.386177677005661E-002
  1.290000000000000E-002    4.185504529142067E-002
  1.300000000000000E-002    3.978277377772217E-002
  1.310000000000000E-002    3.764496647383825E-002
  1.320000000000000E-002    3.544168392549395E-002
  1.330000000000000E-002    3.317303134615565E-002
  1.340000000000000E-002    3.083916689513573E-002
  1.350000000000000E-002    2.844030290136428E-002
  1.360000000000000E-002    2.597670381257090E-002
  1.370000000000000E-002    2.344868311754156E-002
  1.380000000000000E-002    2.085661436412470E-002
  1.390000000000000E-002    1.820092138424715E-002
  1.400000000000000E-002    1.548208531839389E-002
  1.410000000000000E-002    1.270064185508003E-002
  1.420000000000000E-002    9.857182653184360E-003
  1.430000000000000E-002    6.952354839778995E-003
  1.440000000000000E-002    3.986861192326146E-003
  1.450000000000000E-002    9.614624791337550E-004
  1.460000000000000E-002   -2.123024751072075E-003
  1.470000000000000E-002   -5.265726036440072E-003
  1.480000000000000E-002   -8.465712563664516E-003
  1.490000000000000E-002   -1.172199781648596E-002
  1.500000000000000E-002   -1.503353791162573E-002
  1.510000000000000E-002   -1.839923344935791E-002
  1.520000000000000E-002   -2.181792784018060E-002
  1.530000000000000E-002   -2.528841021379186E-002
  1.540000000000000E-002   -2.880941463675182E-002
  1.550000000000000E-002   -3.237961858158245E-002
  1.560000000000000E-002   -3.599764289132281E-002
  1.570000000000000E-002   -3.966205572171880E-002
  1.580000000000000E-002   -4.337137288927738E-002
  1.590000000000000E-002   -4.712405858385875E-002
  1.600000000000000E-002   -5.091851791929251E-002
  1.610000000000000E-002   -5.475310607949611E-002
  1.620000000000000E-002   -5.862613143646493E-002
  1.630000000000000E-002   -6.253585008419313E-002
  1.640000000000000E-002   -6.648046394269191E-002
  1.650000000000000E-002   -7.045813710795604E-002
  1.660000000000000E-002   -7.446697915622616E-002
  1.670000000000000E-002   -7.850505220183501E-002
  1.680000000000000E-002   -8.257037282431409E-002
  1.690000000000000E-002   -8.666092640952582E-002
  1.700000000000000E-002   -9.077463853188733E-002
  1.710000000000000E-002   -9.490940678726278E-002
  1.720000000000000E-002   -9.906308636311031E-002
  1.730000000000000E-002   -0.103233489827707     
  1.740000000000000E-002   -0.107418403533121     
  1.750000000000000E-002   -0.111615562975690     
  1.760000000000000E-002   -0.115822686531437     
  1.770000000000000E-002   -0.120037444441294     
  1.780000000000000E-002   -0.124257491811576     
  1.790000000000000E-002   -0.128480439559009     
  1.800000000000000E-002   -0.132703895002392     
  1.810000000000000E-002   -0.136925417393179     
  1.820000000000000E-002   -0.141142538271842     
  1.830000000000000E-002   -0.145352796264324     
  1.840000000000000E-002   -0.149553688107051     
  1.850000000000000E-002   -0.153742691161075     
  1.860000000000000E-002   -0.157917285830153     
  1.870000000000000E-002   -0.162074911971942     