 -4.000000000000000E-002    0.000000000000000E+000
 -3.990000000000000E-002    0.000000000000000E+000
 -3.980000000000000E-002    0.000000000000000E+000
 -3.970000000000000E-002    0.000000000000000E+000
 -3.960000000000000E-002    0.000000000000000E+000
 -3.950000000000000E-002    0.000000000000000E+000
 -3.940000000000000E-002    0.000000000000000E+000
 -3.930000000000000E-002    0.000000000000000E+000
 -3.920000000000000E-002    0.000000000000000E+000
 -3.910000000000000E-002    0.000000000000000E+000
 -3.900000000000000E-002    0.000000000000000E+000
 -3.890000000000000E-002   -3.499811223039947E-036
 -3.880000000000000E-002   -7.661950913073879E-035
 -3.870000000000000E-002   -8.700309524964471E-034
 -3.860000000000000E-002   -6.816224180300628E-033
 -3.850000000000000E-002   -4.135867513543955E-032
 -3.840000000000000E-002   -2.068890329428862E-031
 -3.830000000000000E-002   -8.870266443741100E-031
 -3.820000000000000E-002   -3.346438608265247E-030
 -3.810000000000000E-002   -1.131968802042648E-029
 -3.800000000000000E-002   -3.481285232076687E-029
 -3.790000000000000E-002   -9.837650623883808E-029
 -3.780000000000000E-002   -2.575268532635014E-028
 -3.770000000000000E-002   -6.284209995496063E-028
 -3.760000000000000E-002   -1.436245851421935E-027
 -3.750000000000000E-002   -3.084799260812763E-027
 -3.740000000000000E-002   -6.239583090806875E-027
 -3.730000000000000E-002   -1.189389416766672E-026
 -3.720000000000000E-002   -2.134550562887339E-026
 -3.710000000000000E-002   -3.594543903232902E-026
 -3.700000000000000E-002   -5.639047461771383E-026
 -3.690000000000000E-002   -8.122969218228593E-026
 -3.680000000000000E-002   -1.041751279603928E-025
 -3.670000000000000E-002   -1.098087430183321E-025
 -3.660000000000000E-002   -6.745708729910684E-026
 -3.650000000000000E-002    7.651350151358591E-026
 -3.640000000000000E-002    4.068068653815819E-025
 -3.630000000000000E-002    1.045065859828295E-024
 -3.620000000000000E-002    2.148812050116971E-024
 -3.610000000000000E-002    3.896313768682967E-024
 -3.600000000000000E-002    6.447811828532160E-024
 -3.590000000000000E-002    9.871936108476749E-024
 -3.580000000000000E-002    1.402659380140885E-023
 -3.570000000000000E-002    1.838769988273320E-023
 -3.560000000000000E-002    2.182859476691451E-023
 -3.550000000000000E-002    2.236939407563358E-023
 -3.540000000000000E-002    1.693964046829178E-023
 -3.530000000000000E-002    1.228680873040678E-024
 -3.520000000000000E-002   -3.026694161846883E-023
 -3.510000000000000E-002   -8.385733095186556E-023
 -3.500000000000000E-002   -1.657720465346434E-022
 -3.490000000000000E-002   -2.806142191802296E-022
 -3.480000000000000E-002   -4.290423981631105E-022
 -3.470000000000000E-002   -6.046652326296942E-022
 -3.460000000000000E-002   -7.902974081404795E-022
 -3.450000000000000E-002   -9.539558973667045E-022
 -3.440000000000000E-002   -1.045262202520336E-021
 -3.430000000000000E-002   -9.932295300275147E-022
 -3.420000000000000E-002   -7.067048323694536E-022
 -3.410000000000000E-002   -7.893300063046733E-023
 -3.400000000000000E-002    1.002268681956636E-021
 -3.390000000000000E-002    2.637488387474252E-021
 -3.380000000000000E-002    4.891210181874372E-021
 -3.370000000000000E-002    7.760180240028111E-021
 -3.360000000000000E-002    1.113640457103321E-020
 -3.350000000000000E-002    1.476826669693601E-020
 -3.340000000000000E-002    1.822513932708231E-020
 -3.330000000000000E-002    2.087266045025702E-020
 -3.320000000000000E-002    2.186724679660473E-020
 -3.310000000000000E-002    2.017901639998644E-020
 -3.300000000000000E-002    1.465174282659694E-020
 -3.290000000000000E-002    4.106490886578269E-021
 -3.280000000000000E-002   -1.250804167312275E-020
 -3.270000000000000E-002   -3.592061063940459E-020
 -3.260000000000000E-002   -6.630651079245232E-020
 -3.250000000000000E-002   -1.030364347921078E-019
 -3.240000000000000E-002   -1.444280656599158E-019
 -3.230000000000000E-002   -1.875296440393576E-019
 -3.220000000000000E-002   -2.279692854586821E-019
 -3.210000000000000E-002   -2.599057995607067E-019
 -3.200000000000000E-002   -2.761159411090221E-019
 -3.190000000000000E-002   -2.682489060322308E-019
 -3.180000000000000E-002   -2.272724129301393E-019
 -3.170000000000000E-002   -1.441260925556747E-019
 -3.160000000000000E-002   -1.058775159556785E-020
 -3.150000000000000E-002    1.796520160626688E-019
 -3.140000000000000E-002    4.297235210334272E-019
 -3.130000000000000E-002    7.381494537055399E-019
 -3.120000000000000E-002    1.097300752395289E-018
 -3.110000000000000E-002    1.491808032180639E-018
 -3.100000000000000E-002    1.897033295938931E-018
 -3.090000000000000E-002    2.277754669229905E-018
 -3.080000000000000E-002    2.587279208462236E-018
 -3.070000000000000E-002    2.767271745142283E-018
 -3.060000000000000E-002    2.748664976435883E-018
 -3.050000000000000E-002    2.454084896249256E-018
 -3.040000000000000E-002    1.802259920646102E-018
 -3.030000000000000E-002    7.148617844876665E-019
 -3.020000000000000E-002   -8.738845804043669E-019
 -3.010000000000000E-002   -3.004709963596692E-018
 -3.000000000000000E-002   -5.678179167696279E-018
 -2.990000000000000E-002   -8.837693719032498E-018
 -2.980000000000000E-002   -1.235199767524562E-017
 -2.970000000000000E-002   -1.599927098008217E-017
 -2.960000000000000E-002   -1.945558026962237E-017
 -2.950000000000000E-002   -2.229102779142699E-017
 -2.940000000000000E-002   -2.397724570364976E-017
 -2.930000000000000E-002   -2.390976788401639E-017
 -2.920000000000000E-002   -2.144813793042341E-017
 -2.910000000000000E-002   -1.597530561337246E-017
 -2.900000000000000E-002   -6.975789593490304E-018
 -2.890000000000000E-002    5.870518850451254E-018
 -2.880000000000000E-002    2.258523846501259E-017
 -2.870000000000000E-002    4.278863595052485E-017
 -2.860000000000000E-002    6.560967078708500E-017
 -2.850000000000000E-002    8.962385631842174E-017
 -2.840000000000000E-002    1.128348526322952E-016
 -2.830000000000000E-002    1.327148563720559E-016
 -2.820000000000000E-002    1.463158405405422E-016
 -2.810000000000000E-002    1.504582799268696E-016
 -2.800000000000000E-002    1.419963861701574E-016
 -2.790000000000000E-002    1.181493423891316E-016
 -2.780000000000000E-002    7.687780477099516E-017
 -2.770000000000000E-002    1.727451167546207E-017
 -2.760000000000000E-002   -6.007059218958299E-017
 -2.750000000000000E-002   -1.527759349389451E-016
 -2.740000000000000E-002   -2.564909035769908E-016
 -2.730000000000000E-002   -3.648774734332905E-016
 -2.720000000000000E-002   -4.697825282369358E-016
 -2.710000000000000E-002   -5.616169234621197E-016
 -2.700000000000000E-002   -6.299364701326058E-016
 -2.690000000000000E-002   -6.641974398003693E-016
 -2.680000000000000E-002   -6.546361175943627E-016
 -2.670000000000000E-002   -5.932018374941827E-016
 -2.660000000000000E-002   -4.744598358923338E-016
 -2.650000000000000E-002   -2.963751773842772E-016
 -2.640000000000000E-002   -6.089546532445466E-017
 -2.630000000000000E-002    2.257332353441838E-016
 -2.620000000000000E-002    5.529552598926842E-016
 -2.610000000000000E-002    9.062036127056205E-016
 -2.600000000000000E-002    1.267475455872422E-015
 -2.590000000000000E-002    1.616120514213001E-015
 -2.580000000000000E-002    1.929753429472326E-015
 -2.570000000000000E-002    2.185192272440999E-015
 -2.560000000000000E-002    2.359335070278404E-015
 -2.550000000000000E-002    2.429913626644567E-015
 -2.540000000000000E-002    2.376110547385367E-015
 -2.530000000000000E-002    2.179080627874209E-015
 -2.520000000000000E-002    1.822477193708546E-015
 -2.510000000000000E-002    1.293132964791277E-015
 -2.500000000000000E-002    5.820685668146148E-016
 -2.490000000000000E-002   -3.140034536461194E-016
 -2.480000000000000E-002   -1.390566801047497E-015
 -2.470000000000000E-002   -2.632564084945528E-015
 -2.460000000000000E-002   -4.011160311705051E-015
 -2.450000000000000E-002   -5.480298315908209E-015
 -2.440000000000000E-002   -6.973520160440642E-015
 -2.430000000000000E-002   -8.401686721271436E-015
 -2.420000000000000E-002   -9.652336248933649E-015
 -2.410000000000000E-002   -1.059145199674842E-014
 -2.400000000000000E-002   -1.106832552487474E-014
 -2.390000000000000E-002   -1.092400127706051E-014
 -2.380000000000000E-002   -1.000344605735979E-014
 -2.370000000000000E-002   -8.171148851674336E-015
 -2.360000000000000E-002   -5.329336212246307E-015
 -2.350000000000000E-002   -1.437438216143837E-015
 -2.340000000000000E-002    3.469043481656831E-015
 -2.330000000000000E-002    9.262500807232041E-015
 -2.320000000000000E-002    1.571240927645784E-014
 -2.310000000000000E-002    2.248208415957011E-014
 -2.300000000000000E-002    2.913492940520123E-014
 -2.290000000000000E-002    3.515145344646613E-014
 -2.280000000000000E-002    3.995736690725307E-014
 -2.270000000000000E-002    4.296191825929189E-014
 -2.260000000000000E-002    4.360441515682885E-014
 -2.250000000000000E-002    4.140566224872432E-014
 -2.240000000000000E-002    3.602008698317373E-014
 -2.230000000000000E-002    2.728368353510798E-014
 -2.220000000000000E-002    1.525273418981020E-014
 -2.210000000000000E-002    2.286487191057147E-016
 -2.200000000000000E-002   -1.723475955957669E-014
 -2.190000000000000E-002   -3.634387445833145E-014
 -2.180000000000000E-002   -5.609812512299472E-014
 -2.170000000000000E-002   -7.534149951778926E-014
 -2.160000000000000E-002   -9.282914698338649E-014
 -2.150000000000000E-002   -1.073037760728825E-013
 -2.140000000000000E-002   -1.175754574075407E-013
 -2.130000000000000E-002   -1.225979312179326E-013
 -2.120000000000000E-002   -1.215350436335908E-013
 -2.110000000000000E-002   -1.138120231698049E-013
 -2.100000000000000E-002   -9.914840881317046E-014
 -2.090000000000000E-002   -7.757178828037444E-014
 -2.080000000000000E-002   -4.941405737765355E-014
 -2.070000000000000E-002   -1.529438332411286E-014
 -2.060000000000000E-002    2.390532457418419E-014
 -2.050000000000000E-002    6.706580741263548E-014
 -2.040000000000000E-002    1.128505701354101E-013
 -2.030000000000000E-002    1.597162667386507E-013
 -2.020000000000000E-002    2.059118720651430E-013
 -2.010000000000000E-002    2.494688830227685E-013
 -2.000000000000000E-002    2.881888485038361E-013
 -1.990000000000000E-002    3.196385956892827E-013
 -1.980000000000000E-002    3.411662320854663E-013
 -1.970000000000000E-002    3.499523063641204E-013
 -1.960000000000000E-002    3.431095418743132E-013
 -1.950000000000000E-002    3.178412643837544E-013
 -1.940000000000000E-002    2.716624042805136E-013
 -1.930000000000000E-002    2.026790789203200E-013
 -1.920000000000000E-002    1.099129586207776E-013
 -1.910000000000000E-002   -6.353412388237892E-015
 -1.900000000000000E-002   -1.442432855876837E-013
 -1.890000000000000E-002   -3.000045888270363E-013
 -1.880000000000000E-002   -4.678247217797508E-013
 -1.870000000000000E-002   -6.397841859674716E-013
 -1.860000000000000E-002   -8.059856674011528E-013
 -1.850000000000000E-002   -9.548842179098095E-013
 -1.840000000000000E-002   -1.073827870816562E-012
 -1.830000000000000E-002   -1.149798339655836E-012
 -1.820000000000000E-002   -1.170319902702465E-012
 -1.810000000000000E-002   -1.124483345345619E-012
 -1.800000000000000E-002   -1.004013702239052E-012
 -1.790000000000000E-002   -8.042947875908559E-013
 -1.780000000000000E-002   -5.252603069434943E-013
 -1.770000000000000E-002   -1.720592625953695E-013
 -1.760000000000000E-002    2.445847716655908E-013
 -1.750000000000000E-002    7.083805853292075E-013
 -1.740000000000000E-002    1.197878705112388E-012
 -1.730000000000000E-002    1.687286884329182E-012
 -1.720000000000000E-002    2.147662148539777E-012
 -1.710000000000000E-002    2.548418176136147E-012
 -1.700000000000000E-002    2.859057871000915E-012
 -1.690000000000000E-002    3.051022769573932E-012
 -1.680000000000000E-002    3.099538291258991E-012
 -1.670000000000000E-002    2.985334267349429E-012
 -1.660000000000000E-002    2.696132045606184E-012
 -1.650000000000000E-002    2.227808262684824E-012
 -1.640000000000000E-002    1.585170661936073E-012
 -1.630000000000000E-002    7.823150448222161E-013
 -1.620000000000000E-002   -1.574406017263616E-013
 -1.610000000000000E-002   -1.202024414732012E-012
 -1.600000000000000E-002   -2.311435676562268E-012
 -1.590000000000000E-002   -3.438881857009702E-012
 -1.580000000000000E-002   -4.532172999172086E-012
 -1.570000000000000E-002   -5.535335294344508E-012
 -1.560000000000000E-002   -6.390417679247745E-012
 -1.550000000000000E-002   -7.039481472442876E-012
 -1.540000000000000E-002   -7.426784046964319E-012
 -1.530000000000000E-002   -7.501167276664041E-012
 -1.520000000000000E-002   -7.218664807452188E-012
 -1.510000000000000E-002   -6.545316716809215E-012
 -1.500000000000000E-002   -5.460153678383446E-012
 -1.490000000000000E-002   -3.958253474296949E-012
 -1.480000000000000E-002   -2.053723878938893E-012
 -1.470000000000000E-002    2.176029155624220E-013
 -1.460000000000000E-002    2.796034406315134E-012
 -1.450000000000000E-002    5.596756882938394E-012
 -1.440000000000000E-002    8.509781443803372E-012
 -1.430000000000000E-002    1.140141498006272E-011
 -1.420000000000000E-002    1.411752520052591E-011
 -1.410000000000000E-002    1.648877565123509E-011
 -1.400000000000000E-002    1.833787269709022E-011
 -1.390000000000000E-002    1.948870380970610E-011
 -1.380000000000000E-002    1.977705917076906E-011
 -1.370000000000000E-002    1.906244949249444E-011
 -1.360000000000000E-002    1.724034145641317E-011
 -1.350000000000000E-002    1.425400334357591E-011
 -1.340000000000000E-002    1.010503916766276E-011
 -1.330000000000000E-002    4.861680081574492E-012
 -1.320000000000000E-002   -1.336065722288207E-012
 -1.310000000000000E-002   -8.275180037867232E-012
 -1.300000000000000E-002   -1.567289035786503E-011
 -1.290000000000000E-002   -2.318471099439352E-011
 -1.280000000000000E-002   -3.041727851265749E-011
 -1.270000000000000E-002   -3.694561802337545E-011
 -1.260000000000000E-002   -4.233416474239747E-011
 -1.250000000000000E-002   -4.616054700995355E-011
 -1.240000000000000E-002   -4.804087288593583E-011
 -1.230000000000000E-002   -4.765509461922213E-011
 -1.220000000000000E-002   -4.477094432254441E-011
 -1.210000000000000E-002   -3.926491608306617E-011
 -1.200000000000000E-002   -3.113893061458923E-011
 -1.190000000000000E-002   -2.053149108549465E-011
 -1.180000000000000E-002   -7.722397003918629E-012
 -1.170000000000000E-002    6.869522508656021E-012
 -1.160000000000000E-002    2.269590465721544E-011
 -1.150000000000000E-002    3.909541911207868E-011
 -1.140000000000000E-002    5.531692943255404E-011
 -1.130000000000000E-002    7.054846384405874E-011
 -1.120000000000000E-002    8.395092785026180E-011
 -1.110000000000000E-002    9.469538540753421E-011
 -1.100000000000000E-002    1.020024402307692E-010
 -1.090000000000000E-002    1.051823182259958E-010
 -1.080000000000000E-002    1.036740806317517E-010
 -1.070000000000000E-002    9.708241772012008E-011
 -1.060000000000000E-002    8.521045024801527E-011
 -1.050000000000000E-002    6.808696735069478E-011
 -1.040000000000000E-002    4.598660463939912E-011
 -1.030000000000000E-002    1.944145128807325E-011
 -1.020000000000000E-002   -1.075730973946952E-011
 -1.010000000000000E-002   -4.356888393175454E-011
 -1.000000000000000E-002   -7.772450504889792E-011
 -9.899999999999999E-003   -1.117617947966272E-010
 -9.800000000000000E-003   -1.440719981111848E-010
 -9.699999999999999E-003   -1.729596316125796E-010
 -9.599999999999999E-003   -1.967133989013460E-010
 -9.500000000000000E-003   -2.136863091839792E-010
 -9.399999999999999E-003   -2.223823459478448E-010
 -9.299999999999999E-003   -2.215458711900353E-010
 -9.200000000000000E-003   -2.102495064333313E-010
 -9.099999999999999E-003   -1.879756175083594E-010
 -8.999999999999999E-003   -1.546858733241877E-010
 -8.900000000000000E-003   -1.108738365485784E-010
 -8.799999999999999E-003   -5.759551059336758E-011
 -8.699999999999999E-003    3.526591198736918E-012
 -8.600000000000000E-003    7.032882646775302E-011
 -8.499999999999999E-003    1.401630464621488E-010
 -8.399999999999999E-003    2.099846649087823E-010
 -8.300000000000000E-003    2.764700893760491E-010
 -8.199999999999999E-003    3.361598460413669E-010
 -8.100000000000000E-003    3.856215219068800E-010
 -8.000000000000000E-003    4.216252314375361E-010
 -7.899999999999999E-003    4.413228180045714E-010
 -7.800000000000000E-003    4.424210873719443E-010
 -7.699999999999999E-003    4.233391987347512E-010
 -7.599999999999999E-003    3.833404637224829E-010
 -7.499999999999999E-003    3.226298675929472E-010
 -7.399999999999999E-003    2.424099638024232E-010
 -7.299999999999999E-003    1.448897194392708E-010
 -7.199999999999999E-003    3.324351547142888E-011
 -7.100000000000000E-003   -8.848023447643487E-011
 -6.999999999999999E-003   -2.154984165743421E-010
 -6.899999999999999E-003   -3.424754913368540E-010
 -6.800000000000000E-003   -4.637415272336022E-010
 -6.699999999999999E-003   -5.735363087042051E-010
 -6.599999999999999E-003   -6.662690635621080E-010
 -6.499999999999999E-003   -7.367814781280150E-010
 -6.399999999999999E-003   -7.806018784004340E-010
 -6.299999999999999E-003   -7.941787497119019E-010
 -6.199999999999999E-003   -7.750819064791687E-010
 -6.100000000000000E-003   -7.221614578798962E-010
 -5.999999999999999E-003   -6.356566558427733E-010
 -5.899999999999999E-003   -5.172480372285563E-010
 -5.800000000000000E-003   -3.700489953246962E-010
 -5.699999999999999E-003   -1.985355123484341E-010
 -5.599999999999999E-003   -8.414974769816246E-012
 -5.499999999999999E-003    1.935622080648537E-010
 -5.399999999999999E-003    3.998425695199103E-010
 -5.299999999999999E-003    6.023522883244751E-010
 -5.199999999999999E-003    7.928131977950225E-010
 -5.099999999999999E-003    9.630795035194831E-010
 -4.999999999999999E-003    1.105481975199380E-009
 -4.899999999999999E-003    1.213165294699899E-009
 -4.799999999999999E-003    1.280403476812775E-009
 -4.699999999999999E-003    1.302878789329248E-009
 -4.599999999999999E-003    1.277909215740398E-009
 -4.499999999999999E-003    1.204613262537122E-009
 -4.399999999999999E-003    1.083999204858220E-009
 -4.299999999999999E-003    9.189733140939283E-010
 -4.199999999999999E-003    7.142613535110228E-010
 -4.099999999999999E-003    4.762432511452095E-010
 -3.999999999999999E-003    2.127061384003891E-010
 -3.899999999999999E-003   -6.747614885572003E-011
 -3.799999999999999E-003   -3.547231939443012E-010
 -3.699999999999999E-003   -6.391695796614087E-010
 -3.599999999999999E-003   -9.111072963477437E-010
 -3.499999999999999E-003   -1.161425114687685E-009
 -3.399999999999999E-003   -1.382019584817460E-009
 -3.299999999999999E-003   -1.566153702959726E-009
 -3.199999999999999E-003   -1.708740697774945E-009
 -3.099999999999999E-003   -1.806533632432122E-009
 -2.999999999999999E-003   -1.858206208641394E-009
 -2.899999999999999E-003   -1.864319439013841E-009
 -2.799999999999999E-003   -1.827171052254421E-009
 -2.699999999999999E-003   -1.750536222690478E-009
 -2.599999999999999E-003   -1.639315827824092E-009
 -2.499999999999999E-003   -1.499112417778888E-009
 -2.399999999999999E-003   -1.335763042121815E-009
 -2.299999999999999E-003   -1.154862655383496E-009
 -2.199999999999999E-003   -9.613107506961423E-010
 -2.099999999999999E-003   -7.589191346435267E-010
 -1.999999999999999E-003   -5.501123869688940E-010
 -1.899999999999999E-003   -3.357510716408779E-010
 -1.799999999999999E-003   -1.150983653557699E-010
 -1.699999999999999E-003    1.140541645457905E-010
 -1.599999999999999E-003    3.550988910440159E-010
 -1.499999999999999E-003    6.121673869361829E-010
 -1.399999999999999E-003    8.895471760883863E-010
 -1.299999999999999E-003    1.190986348049905E-009
 -1.199999999999999E-003    1.518919663972475E-009
 -1.099999999999999E-003    1.873666413038857E-009
 -9.999999999999989E-004    2.252641841103689E-009
 -8.999999999999990E-004    2.649643582022835E-009
 -7.999999999999990E-004    3.054260178859785E-009
 -6.999999999999989E-004    3.451462150404117E-009
 -5.999999999999990E-004    3.821419739794848E-009
 -4.999999999999989E-004    4.139596259748918E-009
 -3.999999999999989E-004    4.377148749344185E-009
 -2.999999999999989E-004    4.501667594157758E-009
 -1.999999999999989E-004    4.478266456907822E-009
 -9.999999999999892E-005    4.271027694864459E-009
  1.084202172485504E-018    3.844794347146490E-009
  1.000000000000011E-004    3.167283539172723E-009
  2.000000000000011E-004    2.211485206601635E-009
  3.000000000000011E-004    9.582951068333736E-010
  4.000000000000011E-004   -6.006833997122146E-010
  5.000000000000011E-004   -2.460239011482196E-009
  6.000000000000011E-004   -4.598647007782592E-009
  7.000000000000011E-004   -6.974847523675400E-009
  8.000000000000011E-004   -9.525810157462395E-009
  9.000000000000012E-004   -1.216418846588691E-008
  1.000000000000001E-003   -1.477636124760964E-008
  1.100000000000001E-003   -1.722096840197519E-008
  1.200000000000001E-003   -1.932801721365794E-008
  1.300000000000001E-003   -2.089864694442002E-008
  1.400000000000001E-003   -2.170560159994442E-008
  1.500000000000001E-003   -2.149445553904500E-008
  1.600000000000001E-003   -1.998560106562577E-008
  1.700000000000001E-003   -1.687698554706819E-008
  1.800000000000001E-003   -1.184756718823429E-008
  1.900000000000001E-003   -4.561412646286161E-009
  2.000000000000001E-003    5.327673313742160E-009
  2.100000000000001E-003    1.817105654917467E-008
  2.200000000000001E-003    3.431993047052552E-008
  2.300000000000001E-003    5.411983196090877E-008
  2.400000000000001E-003    7.790519035581395E-008
  2.500000000000001E-003    1.059941293896545E-007
  2.600000000000001E-003    1.386836443616842E-007
  2.700000000000001E-003    1.762453937597077E-007
  2.800000000000001E-003    2.189222112955682E-007
  2.900000000000001E-003    2.669254331408173E-007
  3.000000000000001E-003    3.204333454128801E-007
  3.100000000000001E-003    3.795906825330935E-007
  3.200000000000001E-003    4.445091698025745E-007
  3.300000000000001E-003    5.152694042065761E-007
  3.400000000000001E-003    5.919238540753649E-007
  3.500000000000001E-003    6.745009870494860E-007
  3.600000000000001E-003    7.630104916461383E-007
  3.700000000000001E-003    8.574494590815369E-007
  3.800000000000001E-003    9.578094760273374E-007
  3.900000000000001E-003    1.064084251259127E-006
  4.000000000000001E-003    1.176278078685239E-006
  4.100000000000001E-003    1.294414379954120E-006
  4.200000000000001E-003    1.418544424803464E-006
  4.300000000000001E-003    1.548756015221361E-006
  4.400000000000001E-003    1.685181901926881E-006
  4.500000000000001E-003    1.828008024489850E-006
  4.600000000000002E-003    1.977480150716544E-006
  4.700000000000001E-003    2.133911307859788E-006
  4.800000000000001E-003    2.297686350708624E-006
  4.900000000000002E-003    2.469266631509478E-006
  5.000000000000001E-003    2.649193145954822E-006
  5.100000000000001E-003    2.838088361338287E-006
  5.200000000000001E-003    3.036656215394191E-006
  5.300000000000002E-003    3.245681746242540E-006
  5.400000000000001E-003    3.466028659271416E-006
  5.500000000000001E-003    3.698636028863382E-006
  5.600000000000002E-003    3.944514099612513E-006
  5.700000000000001E-003    4.204738983582337E-006
  5.800000000000001E-003    4.480446593656202E-006
  5.900000000000002E-003    4.772826649439313E-006
  6.000000000000001E-003    5.083115878441608E-006
  6.100000000000001E-003    5.412592490307673E-006
  6.200000000000002E-003    5.762569964800337E-006
  6.300000000000002E-003    6.134391716240473E-006
  6.400000000000001E-003    6.529427131018762E-006
  6.500000000000001E-003    6.949068561710494E-006
  6.600000000000002E-003    7.394728508986686E-006
  6.700000000000001E-003    7.867841735175690E-006
  6.800000000000001E-003    8.369865143994957E-006
  6.900000000000002E-003    8.902281320704581E-006
  7.000000000000001E-003    9.466603699495744E-006
  7.100000000000001E-003    1.006438247446572E-005
  7.200000000000002E-003    1.069721387102772E-005
  7.300000000000002E-003    1.136674745243354E-005
  7.400000000000001E-003    1.207469960212495E-005
  7.500000000000001E-003    1.282286265253622E-005
  7.600000000000002E-003    1.361311805117009E-005
  7.700000000000001E-003    1.444744981743307E-005
  7.800000000000001E-003    1.532795650657307E-005
  7.900000000000001E-003    1.625686218251881E-005
  8.000000000000002E-003    1.723653254080705E-005
  8.100000000000001E-003    1.826947861465557E-005
  8.200000000000001E-003    1.935837611674600E-005
  8.300000000000002E-003    2.050606825144846E-005
  8.400000000000001E-003    2.171557387258053E-005
  8.500000000000002E-003    2.299009523497016E-005
  8.600000000000002E-003    2.433302266460833E-005
  8.700000000000001E-003    2.574793463287428E-005
  8.800000000000002E-003    2.723860024611716E-005
  8.900000000000002E-003    2.880898410517229E-005
  9.000000000000001E-003    3.046323703620967E-005
  9.100000000000002E-003    3.220570578189182E-005
  9.200000000000002E-003    3.404092238986336E-005
  9.300000000000001E-003    3.597360267925553E-005
  9.400000000000002E-003    3.800864823038329E-005
  9.500000000000001E-003    4.015114787623422E-005
  9.600000000000001E-003    4.240637060916936E-005
  9.700000000000002E-003    4.477977664173160E-005
  9.800000000000001E-003    4.727701093371135E-005
  9.900000000000001E-003    4.990391495695251E-005
  1.000000000000000E-002    5.266653293829333E-005
  1.010000000000000E-002    5.557112460187459E-005
  1.020000000000000E-002    5.862416676725716E-005
  1.030000000000000E-002    6.183238289506174E-005
  1.040000000000000E-002    6.520274239879587E-005
  1.050000000000000E-002    6.874249254573640E-005
  1.060000000000000E-002    7.245917615449646E-005
  1.070000000000000E-002    7.636063937525396E-005
  1.080000000000000E-002    8.045505599536050E-005
  1.090000000000000E-002    8.475095901408994E-005
  1.100000000000000E-002    8.925725134206873E-005
  1.110000000000000E-002    9.398321949059642E-005
  1.120000000000000E-002    9.893856839834439E-005
  1.130000000000000E-002    1.041334183701992E-004
  1.140000000000000E-002    1.095783348534962E-004
  1.150000000000000E-002    1.152843288115156E-004
  1.160000000000000E-002    1.212628792843014E-004
  1.170000000000000E-002    1.275259401172744E-004
  1.180000000000000E-002    1.340859420117687E-004
  1.190000000000000E-002    1.409558021082657E-004
  1.200000000000000E-002    1.481489103392912E-004
  1.210000000000000E-002    1.556791697802375E-004
  1.220000000000000E-002    1.635609682275512E-004
  1.230000000000000E-002    1.718091884328262E-004
  1.240000000000000E-002    1.804392219207309E-004
  1.250000000000000E-002    1.894669671197851E-004
  1.260000000000000E-002    1.989088089427292E-004
  1.270000000000000E-002    2.087816644123040E-004
  1.280000000000000E-002    2.191029603296525E-004
  1.290000000000000E-002    2.298906557384181E-004
  1.300000000000000E-002    2.411632381967066E-004
  1.310000000000000E-002    2.529397599285072E-004
  1.320000000000000E-002    2.652398592262533E-004
  1.330000000000000E-002    2.780837249014314E-004
  1.340000000000000E-002    2.914921731800804E-004
  1.350000000000000E-002    3.054866351651700E-004
  1.360000000000000E-002    3.200892057059478E-004
  1.370000000000000E-002    3.353226092484085E-004
  1.380000000000000E-002    3.512103509648223E-004
  1.390000000000000E-002    3.677765879897345E-004
  1.400000000000000E-002    3.850462525509699E-004
  1.410000000000000E-002    4.030450599891248E-004
  1.420000000000000E-002    4.217995179086552E-004
  1.430000000000000E-002    4.413369800061359E-004
  1.440000000000000E-002    4.616856646955415E-004
  1.450000000000000E-002    4.828746131755341E-004
  1.460000000000000E-002    5.049337639841466E-004
  1.470000000000000E-002    5.278939740306219E-004
  1.480000000000000E-002    5.517870542084065E-004
  1.490000000000000E-002    5.766456869841410E-004
  1.500000000000000E-002    6.025034891476096E-004
  1.510000000000000E-002    6.293950592692021E-004
  1.520000000000000E-002    6.573558931912363E-004
  1.530000000000000E-002    6.864224406999526E-004
  1.540000000000000E-002    7.166321058270018E-004
  1.550000000000000E-002    7.480230988039385E-004
  1.560000000000000E-002    7.806346326884959E-004
  1.570000000000000E-002    8.145068621548785E-004
  1.580000000000000E-002    8.496806853363550E-004
  1.590000000000000E-002    8.861980004780953E-004
  1.600000000000000E-002    9.241015810718916E-004
  1.610000000000000E-002    9.634349423692277E-004
  1.620000000000000E-002    1.004242577409108E-003
  1.630000000000000E-002    1.046569836410726E-003
  1.640000000000000E-002    1.090462917863207E-003
  1.650000000000000E-002    1.135968784209705E-003
  1.660000000000000E-002    1.183135356296373E-003
  1.670000000000000E-002    1.232011380691328E-003
  1.680000000000000E-002    1.282646511087292E-003
  1.690000000000000E-002    1.335091291413792E-003
  1.700000000000000E-002    1.389397275197965E-003
  1.710000000000000E-002    1.445616807071419E-003
  1.720000000000000E-002    1.503803201467885E-003
  1.730000000000000E-002    1.564010807590767E-003
  1.740000000000000E-002    1.626294798497564E-003
  1.750000000000000E-002    1.690711399976789E-003
  1.760000000000000E-002    1.757317736099076E-003
  1.770000000000000E-002    1.826171892791235E-003
  1.780000000000000E-002    1.897332830247130E-003
  1.790000000000000E-002    1.970860351847362E-003
  1.800000000000000E-002    2.046815407177373E-003
  1.810000000000000E-002    2.125259690121896E-003
  1.820000000000000E-002    2.206255458479517E-003
  1.830000000000000E-002    2.289865961883755E-003
  1.840000000000000E-002    2.376155107998602E-003
  1.850000000000000E-002    2.465187504896750E-003
  1.860000000000000E-002    2.557028197198908E-003
  1.870000000000000E-002    2.651742757691192E-003