 -4.000000000000000E-002    0.000000000000000E+000
 -3.990000000000000E-002    0.000000000000000E+000
 -3.980000000000000E-002    0.000000000000000E+000
 -3.970000000000000E-002    0.000000000000000E+000
 -3.960000000000000E-002    0.000000000000000E+000
 -3.950000000000000E-002    0.000000000000000E+000
 -3.940000000000000E-002    0.000000000000000E+000
 -3.930000000000000E-002    0.000000000000000E+000
 -3.920000000000000E-002    0.000000000000000E+000
 -3.910000000000000E-002    0.000000000000000E+000
 -3.900000000000000E-002    0.000000000000000E+000
 -3.890000000000000E-002    0.000000000000000E+000
 -3.880000000000000E-002    0.000000000000000E+000
 -3.870000000000000E-002    0.000000000000000E+000
 -3.860000000000000E-002    0.000000000000000E+000
 -3.850000000000000E-002    0.000000000000000E+000
 -3.840000000000000E-002    0.000000000000000E+000
 -3.830000000000000E-002    0.000000000000000E+000
 -3.820000000000000E-002    0.000000000000000E+000
 -3.810000000000000E-002    0.000000000000000E+000
 -3.800000000000000E-002    0.000000000000000E+000
 -3.790000000000000E-002    0.000000000000000E+000
 -3.780000000000000E-002    0.000000000000000E+000
 -3.770000000000000E-002    0.000000000000000E+000
 -3.760000000000000E-002    0.000000000000000E+000
 -3.750000000000000E-002    0.000000000000000E+000
 -3.740000000000000E-002    0.000000000000000E+000
 -3.730000000000000E-002    0.000000000000000E+000
 -3.720000000000000E-002    0.000000000000000E+000
 -3.710000000000000E-002    0.000000000000000E+000
 -3.700000000000000E-002    0.000000000000000E+000
 -3.690000000000000E-002    0.000000000000000E+000
 -3.680000000000000E-002    0.000000000000000E+000
 -3.670000000000000E-002    0.000000000000000E+000
 -3.660000000000000E-002    0.000000000000000E+000
 -3.650000000000000E-002    0.000000000000000E+000
 -3.640000000000000E-002    0.000000000000000E+000
 -3.630000000000000E-002    0.000000000000000E+000
 -3.620000000000000E-002    0.000000000000000E+000
 -3.610000000000000E-002    0.000000000000000E+000
 -3.600000000000000E-002    0.000000000000000E+000
 -3.590000000000000E-002    0.000000000000000E+000
 -3.580000000000000E-002    0.000000000000000E+000
 -3.570000000000000E-002    0.000000000000000E+000
 -3.560000000000000E-002    0.000000000000000E+000
 -3.550000000000000E-002    0.000000000000000E+000
 -3.540000000000000E-002    0.000000000000000E+000
 -3.530000000000000E-002    0.000000000000000E+000
 -3.520000000000000E-002    0.000000000000000E+000
 -3.510000000000000E-002    0.000000000000000E+000
 -3.500000000000000E-002    0.000000000000000E+000
 -3.490000000000000E-002    0.000000000000000E+000
 -3.480000000000000E-002    0.000000000000000E+000
 -3.470000000000000E-002    0.000000000000000E+000
 -3.460000000000000E-002    0.000000000000000E+000
 -3.450000000000000E-002    0.000000000000000E+000
 -3.440000000000000E-002    0.000000000000000E+000
 -3.430000000000000E-002    0.000000000000000E+000
 -3.420000000000000E-002    6.414635304221270E-048
 -3.410000000000000E-002    1.028343775218797E-046
 -3.400000000000000E-002    3.217328284827603E-046
 -3.390000000000000E-002    6.656758423085516E-046
 -3.380000000000000E-002    1.308258997521907E-045
 -3.370000000000000E-002    2.665069010701556E-045
 -3.360000000000000E-002    4.591669029478452E-045
 -3.350000000000000E-002    6.940134325103185E-045
 -3.340000000000000E-002    1.096892872260103E-044
 -3.330000000000000E-002    1.489898905873673E-044
 -3.320000000000000E-002    1.791036143148012E-044
 -3.310000000000000E-002    1.615955938209964E-044
 -3.300000000000000E-002    3.121575268281762E-045
 -3.290000000000000E-002   -3.112526238237041E-044
 -3.280000000000000E-002   -1.038157936093108E-043
 -3.270000000000000E-002   -2.374895592120807E-043
 -3.260000000000000E-002   -4.610814440466184E-043
 -3.250000000000000E-002   -8.082569098252862E-043
 -3.240000000000000E-002   -1.303606418474034E-042
 -3.230000000000000E-002   -1.947431013714643E-042
 -3.220000000000000E-002   -2.689238276705656E-042
 -3.210000000000000E-002   -3.379261415313276E-042
 -3.200000000000000E-002   -3.714193943346883E-042
 -3.190000000000000E-002   -3.165533879648966E-042
 -3.180000000000000E-002   -9.193444481151002E-043
 -3.170000000000000E-002    4.167213722496885E-042
 -3.160000000000000E-002    1.353113936220925E-041
 -3.150000000000000E-002    2.875579970767051E-041
 -3.140000000000000E-002    5.123127965382565E-041
 -3.130000000000000E-002    8.156234030337562E-041
 -3.120000000000000E-002    1.186741878383948E-040
 -3.110000000000000E-002    1.586376093657724E-040
 -3.100000000000000E-002    1.933260973503262E-040
 -3.090000000000000E-002    2.091917888471057E-040
 -3.080000000000000E-002    1.866284121952823E-040
 -3.070000000000000E-002    1.006342407556601E-040
 -3.060000000000000E-002   -7.635779723874507E-041
 -3.050000000000000E-002   -3.686034322174139E-040
 -3.040000000000000E-002   -7.875170596842114E-040
 -3.030000000000000E-002   -1.318653710078596E-039
 -3.020000000000000E-002   -1.906755091244549E-039
 -3.010000000000000E-002   -2.442530723562818E-039
 -3.000000000000000E-002   -2.757603530102097E-039
 -2.990000000000000E-002   -2.637082188666905E-039
 -2.980000000000000E-002   -1.861679917295079E-039
 -2.970000000000000E-002   -2.919421940137891E-040
 -2.960000000000000E-002    1.995972487274471E-039
 -2.950000000000000E-002    4.522735441515747E-039
 -2.940000000000000E-002    6.183773423826609E-039
 -2.930000000000000E-002    5.037755100535160E-039
 -2.920000000000000E-002   -1.811441222547791E-039
 -2.910000000000000E-002   -1.811097655489666E-038
 -2.900000000000000E-002   -4.796011115485274E-038
 -2.890000000000000E-002   -9.471070922102303E-038
 -2.880000000000000E-002   -1.590637135431031E-037
 -2.870000000000000E-002   -2.362190430010202E-037
 -2.860000000000000E-002   -3.120887385182864E-037
 -2.850000000000000E-002   -3.588522199842768E-037
 -2.840000000000000E-002   -3.305412102945956E-037
 -2.830000000000000E-002   -1.598856772372039E-037
 -2.820000000000000E-002    2.417096569351232E-037
 -2.810000000000000E-002    9.785409585739494E-037
 -2.800000000000000E-002    2.156317020671507E-036
 -2.790000000000000E-002    3.856062617798258E-036
 -2.780000000000000E-002    6.093592058577978E-036
 -2.770000000000000E-002    8.763433651026368E-036
 -2.760000000000000E-002    1.156887470345097E-035
 -2.750000000000000E-002    1.394407569470470E-035
 -2.740000000000000E-002    1.498001331844058E-035
 -2.730000000000000E-002    1.337307593733524E-035
 -2.720000000000000E-002    7.422709249637175E-036
 -2.710000000000000E-002   -4.888628280286074E-036
 -2.700000000000000E-002   -2.569559348598958E-035
 -2.690000000000000E-002   -5.689300786369416E-035
 -2.680000000000000E-002   -9.959284413628966E-035
 -2.670000000000000E-002   -1.533841027162951E-034
 -2.660000000000000E-002   -2.154155928562660E-034
 -2.650000000000000E-002   -2.793652578480111E-034
 -2.640000000000000E-002   -3.344171827345659E-034
 -2.630000000000000E-002   -3.644331013331922E-034
 -2.620000000000000E-002   -3.475752697835921E-034
 -2.610000000000000E-002   -2.566989952688700E-034
 -2.600000000000000E-002   -6.087471173587410E-035
 -2.590000000000000E-002    2.715956186773589E-034
 -2.580000000000000E-002    7.683550624999874E-034
 -2.570000000000000E-002    1.446169099848810E-033
 -2.560000000000000E-002    2.302125225170080E-033
 -2.550000000000000E-002    3.303177733545276E-033
 -2.540000000000000E-002    4.374760916891895E-033
 -2.530000000000000E-002    5.389678106434817E-033
 -2.520000000000000E-002    6.159001591247572E-033
 -2.510000000000000E-002    6.427266581976446E-033
 -2.500000000000000E-002    5.874727131668249E-033
 -2.490000000000000E-002    4.129800843620340E-033
 -2.480000000000000E-002    7.949551881583910E-034
 -2.470000000000000E-002   -4.510931979945677E-033
 -2.460000000000000E-002   -1.209137543745929E-032
 -2.450000000000000E-002   -2.209115681603669E-032
 -2.440000000000000E-002   -3.439618720067624E-032
 -2.430000000000000E-002   -4.851803445978961E-032
 -2.420000000000000E-002   -6.347061790820063E-032
 -2.410000000000000E-002   -7.765109969904805E-032
 -2.400000000000000E-002   -8.874250641005913E-032
 -2.390000000000000E-002   -9.366160498214630E-032
 -2.380000000000000E-002   -8.858150905523672E-032
 -2.370000000000000E-002   -6.906359534924116E-032
 -2.360000000000000E-002   -3.033663933796063E-032
 -2.350000000000000E-002    3.223950713891489E-032
 -2.340000000000000E-002    1.224945333959461E-031
 -2.330000000000000E-002    2.425346403328788E-031
 -2.320000000000000E-002    3.916026670441614E-031
 -2.310000000000000E-002    5.647525023521214E-031
 -2.300000000000000E-002    7.514276123019273E-031
 -2.290000000000000E-002    9.340935731275263E-031
 -2.280000000000000E-002    1.087141510313730E-030
 -2.270000000000000E-002    1.176351688495853E-030
 -2.260000000000000E-002    1.159267019713000E-030
 -2.250000000000000E-002    9.868708822607157E-031
 -2.240000000000000E-002    6.069624625479308E-031
 -2.230000000000000E-002   -3.042679216765667E-032
 -2.220000000000000E-002   -9.653688556004153E-031
 -2.210000000000000E-002   -2.218139192176283E-030
 -2.200000000000000E-002   -3.777422317532785E-030
 -2.190000000000000E-002   -5.587387476563023E-030
 -2.180000000000000E-002   -7.534902075273919E-030
 -2.170000000000000E-002   -9.438688077813795E-030
 -2.160000000000000E-002   -1.104274461601194E-029
 -2.150000000000000E-002   -1.201676983002462E-029
 -2.140000000000000E-002   -1.196649028838184E-029
 -2.130000000000000E-002   -1.045667426214662E-029
 -2.120000000000000E-002   -7.049013472943834E-030
 -2.110000000000000E-002   -1.355933870443271E-030
 -2.100000000000000E-002    6.890322757861192E-030
 -2.090000000000000E-002    1.775625508801196E-029
 -2.080000000000000E-002    3.101900926116301E-029
 -2.070000000000000E-002    4.608027046147985E-029
 -2.060000000000000E-002    6.189386858000409E-029
 -2.050000000000000E-002    7.692118221798687E-029
 -2.040000000000000E-002    8.913007769974782E-029
 -2.030000000000000E-002    9.605312039653678E-029
 -2.020000000000000E-002    9.491883374363802E-029
 -2.010000000000000E-002    8.286542321676596E-029
 -2.000000000000000E-002    5.723949703616686E-029
 -1.990000000000000E-002    1.597253924227418E-029
 -1.980000000000000E-002   -4.198354898824548E-029
 -1.970000000000000E-002   -1.161938167386323E-028
 -1.960000000000000E-002   -2.042955096514418E-028
 -1.950000000000000E-002   -3.016282644323936E-028
 -1.940000000000000E-002   -4.010042317536103E-028
 -1.930000000000000E-002   -4.926869093202433E-028
 -1.920000000000000E-002   -5.646428741608795E-028
 -1.910000000000000E-002   -6.031185081904044E-028
 -1.900000000000000E-002   -5.935716828311455E-028
 -1.890000000000000E-002   -5.219567428451211E-028
 -1.880000000000000E-002   -3.763220341606443E-028
 -1.870000000000000E-002   -1.486342890164235E-028
 -1.860000000000000E-002    1.633034499228618E-028
 -1.850000000000000E-002    5.540168481699391E-028
 -1.840000000000000E-002    1.008820097390878E-027
 -1.830000000000000E-002    1.502802523400050E-027
 -1.820000000000000E-002    2.000577117035979E-027
 -1.810000000000000E-002    2.456995671479742E-027
 -1.800000000000000E-002    2.818991141010882E-027
 -1.790000000000000E-002    3.028621624602015E-027
 -1.780000000000000E-002    3.027290590777886E-027
 -1.770000000000000E-002    2.760990955115001E-027
 -1.760000000000000E-002    2.186290557421485E-027
 -1.750000000000000E-002    1.276642385358007E-027
 -1.740000000000000E-002    2.849186116481224E-029
 -1.730000000000000E-002   -1.533434039476722E-027
 -1.720000000000000E-002   -3.352305821409083E-027
 -1.710000000000000E-002   -5.337473957325722E-027
 -1.700000000000000E-002   -7.365397814544497E-027
 -1.690000000000000E-002   -9.283625550421148E-027
 -1.680000000000000E-002   -1.091799886780047E-026
 -1.670000000000000E-002   -1.208299442408243E-026
 -1.660000000000000E-002   -1.259480369095372E-026
 -1.650000000000000E-002   -1.228643217611118E-026
 -1.640000000000000E-002   -1.102379235148996E-026
 -1.630000000000000E-002   -8.721516148067619E-027
 -1.620000000000000E-002   -5.357022799980687E-027
 -1.610000000000000E-002   -9.813369330906181E-028
 -1.600000000000000E-002    4.274841034387568E-027
 -1.590000000000000E-002    1.020098905893308E-026
 -1.580000000000000E-002    1.651344689784520E-026
 -1.570000000000000E-002    2.286923873608871E-026
 -1.560000000000000E-002    2.888669465492310E-026
 -1.550000000000000E-002    3.417175926343825E-026
 -1.540000000000000E-002    3.834812019269807E-026
 -1.530000000000000E-002    4.108841931908069E-026
 -1.520000000000000E-002    4.214322857737668E-026
 -1.510000000000000E-002    4.136391198449526E-026
 -1.500000000000000E-002    3.871538630296841E-026
 -1.490000000000000E-002    3.427496442961996E-026
 -1.480000000000000E-002    2.821425576945293E-026
 -1.470000000000000E-002    2.076231687126251E-026
 -1.460000000000000E-002    1.215021178985558E-026
 -1.450000000000000E-002    2.539646903010178E-027
 -1.440000000000000E-002   -8.058550071912003E-027
 -1.430000000000000E-002   -1.986722406096569E-026
 -1.420000000000000E-002   -3.341419795122826E-026
 -1.410000000000000E-002   -4.957658443793086E-026
 -1.400000000000000E-002   -6.957988000017604E-026
 -1.390000000000000E-002   -9.493298416885725E-026
 -1.380000000000000E-002   -1.272809939289080E-025
 -1.370000000000000E-002   -1.681616946827334E-025
 -1.360000000000000E-002   -2.186581135302921E-025
 -1.350000000000000E-002   -2.789503056532862E-025
 -1.340000000000000E-002   -3.477839128232610E-025
 -1.330000000000000E-002   -4.218897683682326E-025
 -1.320000000000000E-002   -4.954096654506142E-025
 -1.310000000000000E-002   -5.594036998238460E-025
 -1.300000000000000E-002   -6.015347737296836E-025
 -1.290000000000000E-002   -6.060411553886458E-025
 -1.280000000000000E-002   -5.541171139948862E-025
 -1.270000000000000E-002   -4.248190054735758E-025
 -1.260000000000000E-002   -1.965964353926077E-025
 -1.250000000000000E-002    1.504854886177442E-025
 -1.240000000000000E-002    6.318231959583869E-025
 -1.230000000000000E-002    1.254716875507026E-024
 -1.220000000000000E-002    2.014339138084973E-024
 -1.210000000000000E-002    2.889502604553259E-024
 -1.200000000000000E-002    3.838618905822782E-024
 -1.190000000000000E-002    4.796357161893230E-024
 -1.180000000000000E-002    5.671612921475207E-024
 -1.170000000000000E-002    6.347463972042171E-024
 -1.160000000000000E-002    6.683812344268566E-024
 -1.150000000000000E-002    6.523353359878703E-024
 -1.140000000000000E-002    5.701382609167477E-024
 -1.130000000000000E-002    4.059718075876889E-024
 -1.120000000000000E-002    1.464665564748471E-024
 -1.110000000000000E-002   -2.171471180957577E-024
 -1.100000000000000E-002   -6.866361769842238E-024
 -1.090000000000000E-002   -1.254271071888287E-023
 -1.080000000000000E-002   -1.900460100314172E-023
 -1.070000000000000E-002   -2.591787737317267E-023
 -1.060000000000000E-002   -3.279773260768901E-023
 -1.050000000000000E-002   -3.900693629178029E-023
 -1.040000000000000E-002   -4.376808585159819E-023
 -1.030000000000000E-002   -4.619291824849768E-023
 -1.020000000000000E-002   -4.533092505936789E-023
 -1.010000000000000E-002   -4.023832101480367E-023
 -1.000000000000000E-002   -3.006673423581354E-023
 -9.899999999999999E-003   -1.416899522313579E-023
 -9.800000000000000E-003    7.783035406047104E-024
 -9.699999999999999E-003    3.567606843395981E-023
 -9.599999999999999E-003    6.883847916393107E-023
 -9.500000000000000E-003    1.059410388757897E-022
 -9.399999999999999E-003    1.449291156352183E-022
 -9.299999999999999E-003    1.830009889756905E-022
 -9.200000000000000E-003    2.166464789586301E-022
 -9.099999999999999E-003    2.417584374527460E-022
 -8.999999999999999E-003    2.538263187897143E-022
 -8.900000000000000E-003    2.482161078322009E-022
 -8.799999999999999E-003    2.205343100230955E-022
 -8.699999999999999E-003    1.670659429290628E-022
 -8.600000000000000E-003    8.526736929623178E-023
 -8.499999999999999E-003   -2.571446424291207E-023
 -8.399999999999999E-003   -1.645338761461512E-022
 -8.300000000000000E-003   -3.271951914453305E-022
 -8.199999999999999E-003   -5.067099445552785E-022
 -8.100000000000000E-003   -6.929176278907839E-022
 -8.000000000000000E-003   -8.725237936094513E-022
 -7.899999999999999E-003   -1.029404386217231E-021
 -7.800000000000000E-003   -1.145214562027072E-021
 -7.699999999999999E-003   -1.200323835245558E-021
 -7.599999999999999E-003   -1.175078930693975E-021
 -7.499999999999999E-003   -1.051368079701548E-021
 -7.399999999999999E-003   -8.144327337593682E-022
 -7.299999999999999E-003   -4.548386252242480E-022
 -7.199999999999999E-003    2.951173734944187E-023
 -7.100000000000000E-003    6.314756009787545E-022
 -6.999999999999999E-003    1.333047024521823E-021
 -6.899999999999999E-003    2.104205216593900E-021
 -6.800000000000000E-003    2.902429794723910E-021
 -6.699999999999999E-003    3.673069659892076E-021
 -6.599999999999999E-003    4.350728106705899E-021
 -6.499999999999999E-003    4.861786874392393E-021
 -6.399999999999999E-003    5.128131150755871E-021
 -6.299999999999999E-003    5.072056852500902E-021
 -6.199999999999999E-003    4.622257607288393E-021
 -6.100000000000000E-003    3.720675775618604E-021
 -5.999999999999999E-003    2.329891157253166E-021
 -5.899999999999999E-003    4.406190697540322E-022
 -5.800000000000000E-003   -1.921229247246703E-021
 -5.699999999999999E-003   -4.688542777961801E-021
 -5.599999999999999E-003   -7.748749070908059E-021
 -5.499999999999999E-003   -1.094200227904232E-020
 -5.399999999999999E-003   -1.406249058101167E-020
 -5.299999999999999E-003   -1.686346071058339E-020
 -5.199999999999999E-003   -1.906640573294874E-020
 -5.099999999999999E-003   -2.037464670130356E-020
 -4.999999999999999E-003   -2.049127266461480E-020
 -4.899999999999999E-003   -1.914105352442063E-020
 -4.799999999999999E-003   -1.609557175931148E-020
 -4.699999999999999E-003   -1.120040565856330E-020
 -4.599999999999999E-003   -4.402786071187146E-021
 -4.499999999999999E-003    4.222231032533742E-021
 -4.399999999999999E-003    1.444935615553283E-020
 -4.299999999999999E-003    2.588691285185285E-020
 -4.199999999999999E-003    3.796950179717592E-020
 -4.099999999999999E-003    4.996194433103804E-020
 -3.999999999999999E-003    6.097664419676734E-020
 -3.899999999999999E-003    7.000595564333749E-020
 -3.799999999999999E-003    7.597035738910101E-020
 -3.699999999999999E-003    7.778220746786590E-020
 -3.599999999999999E-003    7.442364092344860E-020
 -3.499999999999999E-003    6.503574479355522E-020
 -3.399999999999999E-003    4.901484328141125E-020
 -3.299999999999999E-003    2.611007478855708E-020
 -3.199999999999999E-003   -3.484641807495934E-021
 -3.099999999999999E-003   -3.905225542102025E-020
 -2.999999999999999E-003   -7.929650844167307E-020
 -2.899999999999999E-003   -1.223167953712233E-019
 -2.799999999999999E-003   -1.656221603055930E-019
 -2.699999999999999E-003   -2.061913025141164E-019
 -2.599999999999999E-003   -2.405833362525760E-019
 -2.499999999999999E-003   -2.651014024039131E-019
 -2.399999999999999E-003   -2.760075340565989E-019
 -2.299999999999999E-003   -2.697831654595626E-019
 -2.199999999999999E-003   -2.434251140846506E-019
 -2.099999999999999E-003   -1.947624317186043E-019
 -1.999999999999999E-003   -1.227751177551906E-019
 -1.899999999999999E-003   -2.789180488150034E-020
 -1.799999999999999E-003    8.775893870747039E-020
 -1.699999999999999E-003    2.201708135421766E-019
 -1.599999999999999E-003    3.633821008957881E-019
 -1.499999999999999E-003    5.095224866903021E-019
 -1.399999999999999E-003    6.490041432035977E-019
 -1.299999999999999E-003    7.708706276012949E-019
 -1.199999999999999E-003    8.633072813745305E-019
 -1.099999999999999E-003    9.143074047026059E-019
 -9.999999999999989E-004    9.124748416290449E-019
 -8.999999999999990E-004    8.479318856893199E-019
 -7.999999999999990E-004    7.132874105709655E-019
 -6.999999999999989E-004    5.046081247213503E-019
 -5.999999999999990E-004    2.223265194193348E-019
 -4.999999999999989E-004   -1.279905088506983E-019
 -3.999999999999989E-004   -5.350893465860167E-019
 -2.999999999999989E-004   -9.817707485379517E-019
 -1.999999999999989E-004   -1.444994552096119E-018
 -9.999999999999892E-005   -1.896404279721303E-018
  1.084202172485504E-018   -2.303310535587854E-018
  1.000000000000011E-004   -2.630143964889436E-018
  2.000000000000011E-004   -2.840363491595524E-018
  3.000000000000011E-004   -2.898766233484310E-018
  4.000000000000011E-004   -2.774112185883604E-018
  5.000000000000011E-004   -2.441940879476906E-018
  6.000000000000011E-004   -1.887418203150324E-018
  7.000000000000011E-004   -1.108030081534595E-018
  8.000000000000011E-004   -1.159089415414776E-019
  9.000000000000012E-004    1.060425025920810E-018
  1.000000000000001E-003    2.375126955967761E-018
  1.100000000000001E-003    3.765097592734762E-018
  1.200000000000001E-003    5.151226344507109E-018
  1.300000000000001E-003    6.440927341614166E-018
  1.400000000000001E-003    7.532012600990762E-018
  1.500000000000001E-003    8.317878016608888E-018
  1.600000000000001E-003    8.693863441175086E-018
  1.700000000000001E-003    8.564572109944254E-018
  1.800000000000001E-003    7.851806052421065E-018
  1.900000000000001E-003    6.502695075782715E-018
  2.000000000000001E-003    4.497503466433029E-018
  2.100000000000001E-003    1.856531572279203E-018
  2.200000000000001E-003   -1.354498572225464E-018
  2.300000000000001E-003   -5.021193111741431E-018
  2.400000000000001E-003   -8.979945025779232E-018
  2.500000000000001E-003   -1.302058754511278E-017
  2.600000000000001E-003   -1.689259567196387E-017
  2.700000000000001E-003   -2.031500090368914E-017
  2.800000000000001E-003   -2.298997020667500E-017
  2.900000000000001E-003   -2.461972726289513E-017
  3.000000000000001E-003   -2.492624262813512E-017
  3.100000000000001E-003   -2.367281088234265E-017
  3.200000000000001E-003   -2.068636865782044E-017
  3.300000000000001E-003   -1.587918960236607E-017
  3.400000000000001E-003   -9.268406476445588E-018
  3.500000000000001E-003   -9.916859904159730E-019
  3.600000000000001E-003    8.682587126913604E-018
  3.700000000000001E-003    1.935216494989890E-017
  3.800000000000001E-003    3.048616381917050E-017
  3.900000000000001E-003    4.143961308199778E-017
  4.000000000000001E-003    5.147782035022775E-017
  4.100000000000001E-003    5.981043067714198E-017
  4.200000000000001E-003    6.563445942216332E-017
  4.300000000000001E-003    6.818475892567549E-017
  4.400000000000001E-003    6.678974532308449E-017
  4.500000000000001E-003    6.092947194944217E-017
  4.600000000000002E-003    5.029257494972104E-017
  4.700000000000001E-003    3.482812611690266E-017
  4.800000000000001E-003    1.478827248865357E-017
  4.900000000000002E-003   -9.242589425442468E-018
  5.000000000000001E-003   -3.633597006489537E-017
  5.100000000000001E-003   -6.522811735016568E-017
  5.200000000000001E-003   -9.435194991065548E-017
  5.300000000000002E-003   -1.218933950609191E-016
  5.400000000000001E-003   -1.458719087303928E-016
  5.500000000000001E-003   -1.642435070820553E-016
  5.600000000000002E-003   -1.750227353572404E-016
  5.700000000000001E-003   -1.764183212969224E-016
  5.800000000000001E-003   -1.669757911141176E-016
  5.900000000000002E-003   -1.457185845200982E-016
  6.000000000000001E-003   -1.122784537603969E-016
  6.100000000000001E-003   -6.700520819317416E-017
  6.200000000000002E-003   -1.104587194548509E-017
  6.300000000000002E-003    5.361614353287071E-017
  6.400000000000001E-003    1.241698033218101E-016
  6.500000000000001E-003    1.970391689854252E-016
  6.600000000000002E-003    2.680034789709850E-016
  6.700000000000001E-003    3.323746436676166E-016
  6.800000000000001E-003    3.852286142667982E-016
  6.900000000000002E-003    4.216832133608170E-016
  7.000000000000001E-003    4.372108404499974E-016
  7.100000000000001E-003    4.279709292989614E-016
  7.200000000000002E-003    3.911438702798224E-016
  7.300000000000002E-003    3.252449972691797E-016
  7.400000000000001E-003    2.303966484929201E-016
  7.500000000000001E-003    1.085350767055369E-016
  7.600000000000002E-003   -3.646894470851115E-017
  7.700000000000001E-003   -1.987950798302378E-016
  7.800000000000001E-003   -3.707784363135284E-016
  7.900000000000001E-003   -5.431437697656321E-016
  8.000000000000002E-003   -7.053708017250612E-016
  8.100000000000001E-003   -8.461847178343197E-016
  8.200000000000001E-003   -9.541570194859091E-016
  8.300000000000002E-003   -1.018393543969828E-015
  8.400000000000001E-003   -1.029277385478191E-015
  8.500000000000002E-003   -9.792270683839286E-016
  8.600000000000002E-003   -8.634255372337944E-016
  8.700000000000001E-003   -6.804689537873912E-016
  8.800000000000002E-003   -4.328864785260399E-016
  8.900000000000002E-003   -1.274815592004100E-016
  9.000000000000001E-003    2.245492157389601E-016
  9.100000000000002E-003    6.077537057283895E-016
  9.200000000000002E-003    1.002842514090840E-015
  9.300000000000001E-003    1.387396040081981E-015
  9.400000000000002E-003    1.736851891072493E-015
  9.500000000000001E-003    2.025746294800716E-015
  9.600000000000001E-003    2.229161763522747E-015
  9.700000000000002E-003    2.324318258446818E-015
  9.800000000000001E-003    2.292224769715721E-015
  9.900000000000001E-003    2.119297399403753E-015
  1.000000000000000E-002    1.798838862925944E-015
  1.010000000000000E-002    1.332271806904230E-015
  1.020000000000000E-002    7.300204153842430E-016
  1.030000000000000E-002    1.194471831985877E-017
  1.040000000000000E-002   -7.927529967985286E-016
  1.050000000000000E-002   -1.646203714603504E-015
  1.060000000000000E-002   -2.503156218946044E-015
  1.070000000000000E-002   -3.312861850749040E-015
  1.080000000000000E-002   -4.021510613792842E-015
  1.090000000000000E-002   -4.575135489373979E-015
  1.100000000000000E-002   -4.922855497739946E-015
  1.110000000000000E-002   -5.020299331583984E-015
  1.120000000000000E-002   -4.833018932669530E-015
  1.130000000000000E-002   -4.339684913287207E-015
  1.140000000000000E-002   -3.534840871318066E-015
  1.150000000000000E-002   -2.431001329468711E-015
  1.160000000000000E-002   -1.059895090044390E-015
  1.170000000000000E-002    5.273171241396255E-016
  1.180000000000000E-002    2.260975169540023E-015
  1.190000000000000E-002    4.055067321024209E-015
  1.200000000000000E-002    5.810595408158200E-015
  1.210000000000000E-002    7.420080886619854E-015
  1.220000000000000E-002    8.773061669009230E-015
  1.230000000000000E-002    9.762350582249242E-015
  1.240000000000000E-002    1.029075826066479E-014
  1.250000000000000E-002    1.027792222822874E-014
  1.260000000000000E-002    9.666843118313357E-015
  1.270000000000000E-002    8.429708936783548E-015
  1.280000000000000E-002    6.572577131758264E-015
  1.290000000000000E-002    4.138525936319396E-015
  1.300000000000000E-002    1.208927872362064E-015
  1.310000000000000E-002   -2.097418318059272E-015
  1.320000000000000E-002   -5.627462341641323E-015
  1.330000000000000E-002   -9.199421682251749E-015
  1.340000000000000E-002   -1.261054950103600E-014
  1.350000000000000E-002   -1.564691547986156E-014
  1.360000000000000E-002   -1.809481716878611E-014
  1.370000000000000E-002   -1.975330163843916E-014
  1.380000000000000E-002   -2.044716944411458E-014
  1.390000000000000E-002   -2.003974338464019E-014
  1.400000000000000E-002   -1.844462409626928E-014
  1.410000000000000E-002   -1.563564087951785E-014
  1.420000000000000E-002   -1.165424358152427E-014
  1.430000000000000E-002   -6.613661981454218E-015
  1.440000000000000E-002   -6.992708473076448E-016
  1.450000000000000E-002    5.835208574989166E-015
  1.460000000000000E-002    1.267584782092621E-014
  1.470000000000000E-002    1.946092429599854E-014
  1.480000000000000E-002    2.579728013769861E-014
  1.490000000000000E-002    3.128004700631135E-014
  1.500000000000000E-002    3.551489775032434E-014
  1.510000000000000E-002    3.814177431854569E-014
  1.520000000000000E-002    3.885882815745941E-014
  1.530000000000000E-002    3.744522937084777E-014
  1.540000000000000E-002    3.378139749583705E-014
  1.550000000000000E-002    2.786524042949053E-014
  1.560000000000000E-002    1.982313391928935E-014
  1.570000000000000E-002    9.914459735114721E-015
  1.580000000000000E-002   -1.471082081355857E-015
  1.590000000000000E-002   -1.382391755596246E-014
  1.600000000000000E-002   -2.653289484189829E-014
  1.610000000000000E-002   -3.891106883627693E-014
  1.620000000000000E-002   -5.022817373383269E-014
  1.630000000000000E-002   -5.974847591439345E-014
  1.640000000000000E-002   -6.677234486048903E-014
  1.650000000000000E-002   -7.067940716193655E-014
  1.660000000000000E-002   -7.097102971156699E-014
  1.670000000000000E-002   -6.730951242556622E-014
  1.680000000000000E-002   -5.955153180479547E-014
  1.690000000000000E-002   -4.777334289114000E-014
  1.700000000000000E-002   -3.228562940133553E-014
  1.710000000000000E-002   -1.363618582056630E-014
  1.720000000000000E-002    7.400727728484483E-015
  1.730000000000000E-002    2.984890132035270E-014
  1.740000000000000E-002    5.256834429044698E-014
  1.750000000000000E-002    7.430607557824829E-014
  1.760000000000000E-002    9.375768113979102E-014
  1.770000000000000E-002    1.096370050940175E-013
  1.780000000000000E-002    1.207507048981389E-013
  1.790000000000000E-002    1.260736874211024E-013
  1.800000000000000E-002    1.248213169863034E-013
  1.810000000000000E-002    1.165138787428507E-013
  1.820000000000000E-002    1.010290008797004E-013
  1.830000000000000E-002    7.863807602542111E-014
  1.840000000000000E-002    5.002327442789036E-014
  1.850000000000000E-002    1.627256537430023E-014
  1.860000000000000E-002   -2.114868877502107E-014
  1.870000000000000E-002   -6.044984893108719E-014