 -4.000000000000000E-002    0.000000000000000E+000
 -3.990000000000000E-002    0.000000000000000E+000
 -3.980000000000000E-002    0.000000000000000E+000
 -3.970000000000000E-002    0.000000000000000E+000
 -3.960000000000000E-002    0.000000000000000E+000
 -3.950000000000000E-002    0.000000000000000E+000
 -3.940000000000000E-002    0.000000000000000E+000
 -3.930000000000000E-002    0.000000000000000E+000
 -3.920000000000000E-002    8.873747343381327E-030
 -3.910000000000000E-002    1.370302842443559E-028
 -3.900000000000000E-002    1.131512077584696E-027
 -3.890000000000000E-002    6.638817577822634E-027
 -3.880000000000000E-002    3.101460831496327E-026
 -3.870000000000000E-002    1.225307259323257E-025
 -3.860000000000000E-002    4.245132714263550E-025
 -3.850000000000000E-002    1.320580889707828E-024
 -3.840000000000000E-002    3.748961405222506E-024
 -3.830000000000000E-002    9.825857746050096E-024
 -3.820000000000000E-002    2.398146001818208E-023
 -3.810000000000000E-002    5.486080904992677E-023
 -3.800000000000000E-002    1.182282408242546E-022
 -3.790000000000000E-002    2.409637182096405E-022
 -3.780000000000000E-002    4.658540193420974E-022
 -3.770000000000000E-002    8.561583532216777E-022
 -3.760000000000000E-002    1.497796198761613E-021
 -3.750000000000000E-002    2.495480638098038E-021
 -3.740000000000000E-002    3.957381352795505E-021
 -3.730000000000000E-002    5.961340097802950E-021
 -3.720000000000000E-002    8.494949198952822E-021
 -3.710000000000000E-002    1.136285329345397E-020
 -3.700000000000000E-002    1.405852254849506E-020
 -3.690000000000000E-002    1.560548193437712E-020
 -3.680000000000000E-002    1.438523293431145E-020
 -3.670000000000000E-002    7.985677673494879E-021
 -3.660000000000000E-002   -6.876579315949532E-021
 -3.650000000000000E-002   -3.428715560125014E-020
 -3.640000000000000E-002   -7.883033166534455E-020
 -3.630000000000000E-002   -1.449597208390195E-019
 -3.620000000000000E-002   -2.359664006406005E-019
 -3.610000000000000E-002   -3.525079259771242E-019
 -3.600000000000000E-002   -4.907318716543029E-019
 -3.590000000000000E-002   -6.401288088448362E-019
 -3.580000000000000E-002   -7.813773287468586E-019
 -3.570000000000000E-002   -8.845821383177050E-019
 -3.560000000000000E-002   -9.084371197986702E-019
 -3.550000000000000E-002   -8.009338688745572E-019
 -3.540000000000000E-002   -5.022495545098025E-019
 -3.530000000000000E-002    4.964927641712472E-020
 -3.520000000000000E-002    9.103903794735625E-019
 -3.510000000000000E-002    2.117667140822097E-018
 -3.500000000000000E-002    3.677435292016556E-018
 -3.490000000000000E-002    5.549126280315424E-018
 -3.480000000000000E-002    7.631839068437502E-018
 -3.470000000000000E-002    9.754076879219048E-018
 -3.460000000000000E-002    1.166996681268219E-017
 -3.450000000000000E-002    1.306492434832024E-017
 -3.440000000000000E-002    1.357324105418794E-017
 -3.430000000000000E-002    1.280899908902955E-017
 -3.420000000000000E-002    1.041004809949900E-017
 -3.410000000000000E-002    6.092551312485140E-018
 -3.400000000000000E-002   -2.888859412968410E-019
 -3.390000000000000E-002   -8.683087625965773E-018
 -3.380000000000000E-002   -1.879576463119706E-017
 -3.370000000000000E-002   -3.006540137221460E-017
 -3.360000000000000E-002   -4.167205186685604E-017
 -3.350000000000000E-002   -5.258744353612180E-017
 -3.340000000000000E-002   -6.167052929500618E-017
 -3.330000000000000E-002   -6.780632988975029E-017
 -3.320000000000000E-002   -7.007808447165296E-017
 -3.310000000000000E-002   -6.795383305162578E-017
 -3.300000000000000E-002   -6.146026724571719E-017
 -3.290000000000000E-002   -5.130997503058318E-017
 -3.280000000000000E-002   -3.894519419407226E-017
 -3.270000000000000E-002   -2.646309396180575E-017
 -3.260000000000000E-002   -1.639580121214355E-017
 -3.250000000000000E-002   -1.133368243986784E-017
 -3.240000000000000E-002   -1.340165041026131E-017
 -3.230000000000000E-002   -2.362589958847003E-017
 -3.220000000000000E-002   -4.125706100111746E-017
 -3.210000000000000E-002   -6.314477968335023E-017
 -3.200000000000000E-002   -8.328105460424234E-017
 -3.190000000000000E-002   -9.264147479932310E-017
 -3.180000000000000E-002   -7.945057417047281E-017
 -3.170000000000000E-002   -2.997355265364967E-017
 -3.160000000000000E-002    7.010544120245446E-017
 -3.150000000000000E-002    2.337245979740154E-016
 -3.140000000000000E-002    4.699917387055919E-016
 -3.130000000000000E-002    7.814173571335436E-016
 -3.120000000000000E-002    1.161105658788855E-015
 -3.110000000000000E-002    1.590256774746078E-015
 -3.100000000000000E-002    2.036390391471464E-015
 -3.090000000000000E-002    2.452717914100136E-015
 -3.080000000000000E-002    2.779060612860437E-015
 -3.070000000000000E-002    2.944622152495819E-015
 -3.060000000000000E-002    2.872777184941852E-015
 -3.050000000000000E-002    2.487838549135334E-015
 -3.040000000000000E-002    1.723530189247707E-015
 -3.030000000000000E-002    5.326283644641120E-016
 -3.020000000000000E-002   -1.103008419020829E-015
 -3.010000000000000E-002   -3.163015927543447E-015
 -3.000000000000000E-002   -5.580837815392280E-015
 -2.990000000000000E-002   -8.238953404065660E-015
 -2.980000000000000E-002   -1.096809908447872E-014
 -2.970000000000000E-002   -1.355136837214998E-014
 -2.960000000000000E-002   -1.573371015884933E-014
 -2.950000000000000E-002   -1.723687294470467E-014
 -2.940000000000000E-002   -1.777933724571951E-014
 -2.930000000000000E-002   -1.710015470755796E-014
 -2.920000000000000E-002   -1.498511458973685E-014
 -2.910000000000000E-002   -1.129312377676837E-014
 -2.900000000000000E-002   -5.980466608445366E-015
 -2.890000000000000E-002    8.795823661990957E-016
 -2.880000000000000E-002    9.084133262009050E-015
 -2.870000000000000E-002    1.829705204030995E-014
 -2.860000000000000E-002    2.805567543464369E-014
 -2.850000000000000E-002    3.778840044676726E-014
 -2.840000000000000E-002    4.684281206642039E-014
 -2.830000000000000E-002    5.452287435127641E-014
 -2.820000000000000E-002    6.013295430285014E-014
 -2.810000000000000E-002    6.302550394046175E-014
 -2.800000000000000E-002    6.264890507856066E-014
 -2.790000000000000E-002    5.859161332813646E-014
 -2.780000000000000E-002    5.061906429312031E-014
 -2.770000000000000E-002    3.870029337161657E-014
 -2.760000000000000E-002    2.302213362389425E-014
 -2.750000000000000E-002    3.990007795697773E-015
 -2.740000000000000E-002   -1.778452361781606E-014
 -2.730000000000000E-002   -4.150789074883044E-014
 -2.720000000000000E-002   -6.623792011576828E-014
 -2.710000000000000E-002   -9.092312549787346E-014
 -2.700000000000000E-002   -1.144444701669221E-013
 -2.690000000000000E-002   -1.356559983417555E-013
 -2.680000000000000E-002   -1.534217794719271E-013
 -2.670000000000000E-002   -1.666473845506804E-013
 -2.660000000000000E-002   -1.743057606958804E-013
 -2.650000000000000E-002   -1.754586646064219E-013
 -2.640000000000000E-002   -1.692763085569017E-013
 -2.630000000000000E-002   -1.550590449420838E-013
 -2.620000000000000E-002   -1.322651437674087E-013
 -2.610000000000000E-002   -1.005488589672092E-013
 -2.600000000000000E-002   -5.981129716408283E-014
 -2.590000000000000E-002   -1.026531864307223E-014
 -2.580000000000000E-002    4.748749391720196E-014
 -2.570000000000000E-002    1.123727531932719E-013
 -2.560000000000000E-002    1.827602573060003E-013
 -2.550000000000000E-002    2.563935639547098E-013
 -2.540000000000000E-002    3.303458218587932E-013
 -2.530000000000000E-002    4.010169164973903E-013
 -2.520000000000000E-002    4.641865038347102E-013
 -2.510000000000000E-002    5.151349595482556E-013
 -2.500000000000000E-002    5.488405673378061E-013
 -2.490000000000000E-002    5.602550899460709E-013
 -2.480000000000000E-002    5.446511388028889E-013
 -2.470000000000000E-002    4.980283522061627E-013
 -2.460000000000000E-002    4.175530395050884E-013
 -2.450000000000000E-002    3.020012051585517E-013
 -2.440000000000000E-002    1.521653132324129E-013
 -2.430000000000000E-002   -2.881739691975695E-014
 -2.420000000000000E-002   -2.352587315498271E-013
 -2.410000000000000E-002   -4.588756249395498E-013
 -2.400000000000000E-002   -6.889403153114973E-013
 -2.390000000000000E-002   -9.126458054291908E-013
 -2.380000000000000E-002   -1.115690532359912E-012
 -2.370000000000000E-002   -1.283067705913122E-012
 -2.360000000000000E-002   -1.400026126310633E-012
 -2.350000000000000E-002   -1.453147301234740E-012
 -2.340000000000000E-002   -1.431468134755434E-012
 -2.330000000000000E-002   -1.327563897968225E-012
 -2.320000000000000E-002   -1.138497570745771E-012
 -2.310000000000000E-002   -8.665446323867155E-013
 -2.300000000000000E-002   -5.196068540675252E-013
 -2.290000000000000E-002   -1.112474557359150E-013
 -2.280000000000000E-002    3.396952455528699E-013
 -2.270000000000000E-002    8.099297419762099E-013
 -2.260000000000000E-002    1.272943380944388E-012
 -2.250000000000000E-002    1.700585354447853E-012
 -2.240000000000000E-002    2.064904719597582E-012
 -2.230000000000000E-002    2.340116492945081E-012
 -2.220000000000000E-002    2.504546437852171E-012
 -2.210000000000000E-002    2.542397357689388E-012
 -2.200000000000000E-002    2.445179325661705E-012
 -2.190000000000000E-002    2.212666371651888E-012
 -2.180000000000000E-002    1.853270588567906E-012
 -2.170000000000000E-002    1.383771767945801E-012
 -2.160000000000000E-002    8.283893024373691E-013
 -2.150000000000000E-002    2.172446526583927E-013
 -2.140000000000000E-002   -4.156818414923841E-013
 -2.130000000000000E-002   -1.034945396457433E-012
 -2.120000000000000E-002   -1.606183879870973E-012
 -2.110000000000000E-002   -2.098603180570552E-012
 -2.100000000000000E-002   -2.487168728105289E-012
 -2.090000000000000E-002   -2.754309535614904E-012
 -2.080000000000000E-002   -2.890954456485732E-012
 -2.070000000000000E-002   -2.896802747622490E-012
 -2.060000000000000E-002   -2.779789441312525E-012
 -2.050000000000000E-002   -2.554791285336056E-012
 -2.040000000000000E-002   -2.241704391516310E-012
 -2.030000000000000E-002   -1.863088106409524E-012
 -2.020000000000000E-002   -1.441633745506143E-012
 -2.010000000000000E-002   -9.977436401826346E-013
 -2.000000000000000E-002   -5.475096223428553E-013
 -1.990000000000000E-002   -1.013505267901877E-013
 -1.980000000000000E-002    3.365013668610327E-013
 -1.970000000000000E-002    7.675514993308446E-013
 -1.960000000000000E-002    1.197638750664271E-012
 -1.950000000000000E-002    1.634700405290883E-012
 -1.940000000000000E-002    2.085927030417128E-012
 -1.930000000000000E-002    2.554662210421685E-012
 -1.920000000000000E-002    3.037428787678681E-012
 -1.910000000000000E-002    3.521513607050495E-012
 -1.900000000000000E-002    3.983524632014231E-012
 -1.890000000000000E-002    4.389249910478926E-012
 -1.880000000000000E-002    4.695033818567158E-012
 -1.870000000000000E-002    4.850731969261362E-012
 -1.860000000000000E-002    4.804122508638987E-012
 -1.850000000000000E-002    4.506453808771939E-012
 -1.840000000000000E-002    3.918648979695753E-012
 -1.830000000000000E-002    3.017520580333044E-012
 -1.820000000000000E-002    1.801285817681250E-012
 -1.810000000000000E-002    2.936676699702747E-013
 -1.800000000000000E-002   -1.454108229727951E-012
 -1.790000000000000E-002   -3.363920089745270E-012
 -1.780000000000000E-002   -5.334236357521337E-012
 -1.770000000000000E-002   -7.246485561396016E-012
 -1.760000000000000E-002   -8.974007780431449E-012
 -1.750000000000000E-002   -1.039291129937345E-011
 -1.740000000000000E-002   -1.139392344550086E-011
 -1.730000000000000E-002   -1.189405813063625E-011
 -1.720000000000000E-002   -1.184683446347854E-011
 -1.710000000000000E-002   -1.124975792753169E-011
 -1.700000000000000E-002   -1.014790938136685E-011
 -1.690000000000000E-002   -8.632817162593537E-012
 -1.680000000000000E-002   -6.836118288034242E-012
 -1.670000000000000E-002   -4.918074874744080E-012
 -1.660000000000000E-002   -3.051577687789526E-012
 -1.650000000000000E-002   -1.402753831173348E-012
 -1.640000000000000E-002   -1.098436840190939E-013
 -1.630000000000000E-002    7.375314353473424E-013
 -1.620000000000000E-002    1.116543447629830E-012
 -1.610000000000000E-002    1.084458282095615E-012
 -1.600000000000000E-002    7.849877228689297E-013
 -1.590000000000000E-002    4.461431262574338E-013
 -1.580000000000000E-002    3.685994347288423E-013
 -1.570000000000000E-002    9.045415275883113E-013
 -1.560000000000000E-002    2.427700706125598E-012
 -1.550000000000000E-002    5.296423054157979E-012
 -1.540000000000000E-002    9.812335897039188E-012
 -1.530000000000000E-002    1.617788281406435E-011
 -1.520000000000000E-002    2.445655283802468E-011
 -1.510000000000000E-002    3.453956315768058E-011
 -1.500000000000000E-002    4.612274516376787E-011
 -1.490000000000000E-002    5.869660033226151E-011
 -1.480000000000000E-002    7.155178990126678E-011
 -1.470000000000000E-002    8.380110695619400E-011
 -1.460000000000000E-002    9.441745648323806E-011
 -1.450000000000000E-002    1.022864361136959E-010
 -1.440000000000000E-002    1.062704074071318E-010
 -1.430000000000000E-002    1.052801474837921E-010
 -1.420000000000000E-002    9.834930493939623E-011
 -1.410000000000000E-002    8.470659586263421E-011
 -1.400000000000000E-002    6.384087925339848E-011
 -1.390000000000000E-002    3.555458082181349E-011
 -1.380000000000000E-002    2.310773045611582E-015
 -1.370000000000000E-002   -4.228755965691003E-011
 -1.360000000000000E-002   -9.040886626820975E-011
 -1.350000000000000E-002   -1.430902090303769E-010
 -1.340000000000000E-002   -1.987218369356368E-010
 -1.330000000000000E-002   -2.553936194683394E-010
 -1.320000000000000E-002   -3.109400070562419E-010
 -1.310000000000000E-002   -3.629884384003340E-010
 -1.300000000000000E-002   -4.090071490342988E-010
 -1.290000000000000E-002   -4.463509111308547E-010
 -1.280000000000000E-002   -4.723032976614257E-010
 -1.270000000000000E-002   -4.841168598723768E-010
 -1.260000000000000E-002   -4.790541243229752E-010
 -1.250000000000000E-002   -4.544339078788368E-010
 -1.240000000000000E-002   -4.076890350900649E-010
 -1.230000000000000E-002   -3.364415498702244E-010
 -1.220000000000000E-002   -2.386020051043713E-010
 -1.210000000000000E-002   -1.124972693289016E-010
 -1.200000000000000E-002    4.297030628475173E-011
 -1.190000000000000E-002    2.281327159714122E-010
 -1.180000000000000E-002    4.423399119427308E-010
 -1.170000000000000E-002    6.837251788074883E-010
 -1.160000000000000E-002    9.489654927572503E-010
 -1.150000000000000E-002    1.233053233761724E-009
 -1.140000000000000E-002    1.529098999223330E-009
 -1.130000000000000E-002    1.828188001009268E-009
 -1.120000000000000E-002    2.119310344012894E-009
 -1.110000000000000E-002    2.389388448767884E-009
 -1.100000000000000E-002    2.623417579738644E-009
 -1.090000000000000E-002    2.804733454269453E-009
 -1.080000000000000E-002    2.915414822956867E-009
 -1.070000000000000E-002    2.936819976022870E-009
 -1.060000000000000E-002    2.850249968716954E-009
 -1.050000000000000E-002    2.637722796057520E-009
 -1.040000000000000E-002    2.282836266860355E-009
 -1.030000000000000E-002    1.771689551313110E-009
 -1.020000000000000E-002    1.093828188057916E-009
 -1.010000000000000E-002    2.431767711651255E-010
 -1.000000000000000E-002   -7.810813727011993E-010
 -9.899999999999999E-003   -1.973715954124743E-009
 -9.800000000000000E-003   -3.322789461518524E-009
 -9.699999999999999E-003   -4.809157989196810E-009
 -9.599999999999999E-003   -6.406161146193669E-009
 -9.500000000000000E-003   -8.079525250957065E-009
 -9.399999999999999E-003   -9.787495792866845E-009
 -9.299999999999999E-003   -1.148121497772420E-008
 -9.200000000000000E-003   -1.310534806808252E-008
 -9.099999999999999E-003   -1.459896631791480E-008
 -8.999999999999999E-003   -1.589668351445049E-008
 -8.900000000000000E-003   -1.693004630179258E-008
 -8.799999999999999E-003   -1.762917054730765E-008
 -8.699999999999999E-003   -1.792461628707310E-008
 -8.600000000000000E-003   -1.774948664175977E-008
 -8.499999999999999E-003   -1.704174209004674E-008
 -8.399999999999999E-003   -1.574669234178114E-008
 -8.300000000000000E-003   -1.381965065409966E-008
 -8.199999999999999E-003   -1.122870123317930E-008
 -8.100000000000000E-003   -7.957540723604108E-009
 -8.000000000000000E-003   -4.008327483837196E-009
 -7.899999999999999E-003    5.955321540325390E-010
 -7.800000000000000E-003    5.806715150742877E-009
 -7.699999999999999E-003    1.155154798780123E-008
 -7.599999999999999E-003    1.772786191572648E-008
 -7.499999999999999E-003    2.420324594127399E-008
 -7.399999999999999E-003    3.081377982773905E-008
 -7.299999999999999E-003    3.736330678968755E-008
 -7.199999999999999E-003    4.362333138311167E-008
 -7.100000000000000E-003    4.933354964154033E-008
 -6.999999999999999E-003    5.420312909243318E-008
 -6.899999999999999E-003    5.791258958362381E-008
 -6.800000000000000E-003    6.011644461174025E-008
 -6.699999999999999E-003    6.044638117005272E-008
 -6.599999999999999E-003    5.851507644915909E-008
 -6.499999999999999E-003    5.392046676406878E-008
 -6.399999999999999E-003    4.625032712865896E-008
 -6.299999999999999E-003    3.508720576664332E-008
 -6.199999999999999E-003    2.001332132207272E-008
 -6.100000000000000E-003    6.156244302315916E-010
 -5.999999999999999E-003   -2.350946698246916E-008
 -5.899999999999999E-003   -5.275148145840533E-008
 -5.800000000000000E-003   -8.748184245658676E-008
 -5.699999999999999E-003   -1.280503554591618E-007
 -5.599999999999999E-003   -1.747823588128563E-007
 -5.499999999999999E-003   -2.279765455045663E-007
 -5.399999999999999E-003   -2.879036948434211E-007
 -5.299999999999999E-003   -3.548065365690735E-007
 -5.199999999999999E-003   -4.289000856061540E-007
 -5.099999999999999E-003   -5.103737103024728E-007
 -4.999999999999999E-003   -5.993933920160148E-007
 -4.899999999999999E-003   -6.961056767843270E-007
 -4.799999999999999E-003   -8.006422406172428E-007
 -4.699999999999999E-003   -9.131255561455987E-007
 -4.599999999999999E-003   -1.033674936475483E-006
 -4.499999999999999E-003   -1.162413685245786E-006
 -4.399999999999999E-003   -1.299476666420268E-006
 -4.299999999999999E-003   -1.445018050559176E-006
 -4.199999999999999E-003   -1.599219385869750E-006
 -4.099999999999999E-003   -1.762297318443907E-006
 -3.999999999999999E-003   -1.934511417365210E-006
 -3.899999999999999E-003   -2.116171523736223E-006
 -3.799999999999999E-003   -2.307644190246668E-006
 -3.699999999999999E-003   -2.509358375340326E-006
 -3.599999999999999E-003   -2.721810830986359E-006
 -3.499999999999999E-003   -2.945569794225818E-006
 -3.399999999999999E-003   -3.181278079612299E-006
 -3.299999999999999E-003   -3.429654617954349E-006
 -3.199999999999999E-003   -3.691496507543830E-006
 -3.099999999999999E-003   -3.967678669396131E-006
 -2.999999999999999E-003   -4.259153930248405E-006
 -2.899999999999999E-003   -4.566951892555354E-006
 -2.799999999999999E-003   -4.892177650074387E-006
 -2.699999999999999E-003   -5.236010532427195E-006
 -2.599999999999999E-003   -5.599703377292269E-006
 -2.499999999999999E-003   -5.984580195275027E-006
 -2.399999999999999E-003   -6.392037004783186E-006
 -2.299999999999999E-003   -6.823539060822868E-006
 -2.199999999999999E-003   -7.280621866232860E-006
 -2.099999999999999E-003   -7.764893010556953E-006
 -1.999999999999999E-003   -8.278030400830283E-006
 -1.899999999999999E-003   -8.821785463518617E-006
 -1.799999999999999E-003   -9.397984950303967E-006
 -1.699999999999999E-003   -1.000853233396307E-005
 -1.599999999999999E-003   -1.065541241451148E-005
 -1.499999999999999E-003   -1.134069274572553E-005
 -1.399999999999999E-003   -1.206652912793632E-005
 -1.299999999999999E-003   -1.283517013222466E-005
 -1.199999999999999E-003   -1.364895934680604E-005
 -1.099999999999999E-003   -1.451034729507188E-005
 -9.999999999999989E-004   -1.542189027721382E-005
 -8.999999999999990E-004   -1.638626152552646E-005
 -7.999999999999990E-004   -1.740626013000007E-005
 -6.999999999999989E-004   -1.848481548086374E-005
 -5.999999999999990E-004   -1.962499870915003E-005
 -4.999999999999989E-004   -2.083002944822706E-005
 -3.999999999999989E-004   -2.210328950707930E-005
 -2.999999999999989E-004   -2.344832869982572E-005
 -1.999999999999989E-004   -2.486887328990623E-005
 -9.999999999999892E-005   -2.636884295092127E-005
  1.084202172485504E-018   -2.795234773190795E-005
  1.000000000000011E-004   -2.962370324956237E-005
  2.000000000000011E-004   -3.138743587680938E-005
  3.000000000000011E-004   -3.324829705436165E-005
  4.000000000000011E-004   -3.521125593346389E-005
  5.000000000000011E-004   -3.728151358951569E-005
  6.000000000000011E-004   -3.946450307263661E-005
  7.000000000000011E-004   -4.176589760809299E-005
  8.000000000000011E-004   -4.419161763874424E-005
  9.000000000000012E-004   -4.674782556727521E-005
  1.000000000000001E-003   -4.944094549884485E-005
  1.100000000000001E-003   -5.227766669194323E-005
  1.200000000000001E-003   -5.526494461641452E-005
  1.300000000000001E-003   -5.841002513296223E-005
  1.400000000000001E-003   -6.172044273935079E-005
  1.500000000000001E-003   -6.520405089995834E-005
  1.600000000000001E-003   -6.886903128695028E-005
  1.700000000000001E-003   -7.272391278990195E-005
  1.800000000000001E-003   -7.677760110999071E-005
  1.900000000000001E-003   -8.103938047806510E-005
  2.000000000000001E-003   -8.551895920918233E-005
  2.100000000000001E-003   -9.022647501321678E-005
  2.200000000000001E-003   -9.517253797274453E-005
  2.300000000000001E-003   -1.003682185954448E-004
  2.400000000000001E-003   -1.058251042195317E-004
  2.500000000000001E-003   -1.115552959753850E-004
  2.600000000000001E-003   -1.175714327610272E-004
  2.700000000000001E-003   -1.238867076073533E-004
  2.800000000000001E-003   -1.305148653992085E-004
  2.900000000000001E-003   -1.374702413525278E-004
  3.000000000000001E-003   -1.447677553556628E-004
  3.100000000000001E-003   -1.524229134722052E-004
  3.200000000000001E-003   -1.604518343908255E-004
  3.300000000000001E-003   -1.688712409786041E-004
  3.400000000000001E-003   -1.776984966355792E-004
  3.500000000000001E-003   -1.869515589956396E-004
  3.600000000000001E-003   -1.966490581862466E-004
  3.700000000000001E-003   -2.068102713555317E-004
  3.800000000000001E-003   -2.174551442385532E-004
  3.900000000000001E-003   -2.286042950925573E-004
  4.000000000000001E-003   -2.402790743648209E-004
  4.100000000000001E-003   -2.525015191697037E-004
  4.200000000000001E-003   -2.652944539340287E-004
  4.300000000000001E-003   -2.786814427523129E-004
  4.400000000000001E-003   -2.926868765453218E-004
  4.500000000000001E-003   -3.073359259737266E-004
  4.600000000000002E-003   -3.226546481166406E-004
  4.700000000000001E-003   -3.386699992707303E-004
  4.800000000000001E-003   -3.554098025377327E-004
  4.900000000000002E-003   -3.729028668872862E-004
  5.000000000000001E-003   -3.911789629399594E-004
  5.100000000000001E-003   -4.102688457371784E-004
  5.200000000000001E-003   -4.302043284140096E-004
  5.300000000000002E-003   -4.510183037278164E-004
  5.400000000000001E-003   -4.727447317507391E-004
  5.500000000000001E-003   -4.954187221703128E-004
  5.600000000000002E-003   -5.190765818992740E-004
  5.700000000000001E-003   -5.437556747965140E-004
  5.800000000000001E-003   -5.694947282806238E-004
  5.900000000000002E-003   -5.963335717301053E-004
  6.000000000000001E-003   -6.243133165967021E-004
  6.100000000000001E-003   -6.534764109097154E-004
  6.200000000000002E-003   -6.838665654923337E-004
  6.300000000000002E-003   -7.155287087344956E-004
  6.400000000000001E-003   -7.485091762184956E-004
  6.500000000000001E-003   -7.828556322286772E-004
  6.600000000000002E-003   -8.186170183244638E-004
  6.700000000000001E-003   -8.558436461492214E-004
  6.800000000000001E-003   -8.945871592806265E-004
  6.900000000000002E-003   -9.349006551062650E-004
  7.000000000000001E-003   -9.768384818831057E-004
  7.100000000000001E-003   -1.020456496695067E-003
  7.200000000000002E-003   -1.065811835647911E-003
  7.300000000000002E-003   -1.112963119013165E-003
  7.400000000000001E-003   -1.161970341059527E-003
  7.500000000000001E-003   -1.212894982293959E-003
  7.600000000000002E-003   -1.265799905764780E-003
  7.700000000000001E-003   -1.320749473609969E-003
  7.800000000000001E-003   -1.377809685538661E-003
  7.900000000000001E-003   -1.437047880843230E-003
  8.000000000000002E-003   -1.498533037141959E-003
  8.100000000000001E-003   -1.562335629882525E-003
  8.200000000000001E-003   -1.628527660830791E-003
  8.300000000000002E-003   -1.697182781617093E-003
  8.400000000000001E-003   -1.768376152638160E-003
  8.500000000000002E-003   -1.842184691610028E-003
  8.600000000000002E-003   -1.918686974985294E-003
  8.700000000000001E-003   -1.997962788019180E-003
  8.800000000000002E-003   -2.080094076554522E-003
  8.900000000000002E-003   -2.165163945060433E-003
  9.000000000000001E-003   -2.253257169220572E-003
  9.100000000000002E-003   -2.344460218817397E-003
  9.200000000000002E-003   -2.438861094380475E-003
  9.300000000000001E-003   -2.536549471573934E-003
  9.400000000000002E-003   -2.637616271735005E-003
  9.500000000000001E-003   -2.742154030229746E-003
  9.600000000000001E-003   -2.850256663649343E-003
  9.700000000000002E-003   -2.962019636558315E-003
  9.800000000000001E-003   -3.077539873331059E-003
  9.900000000000001E-003   -3.196915194666136E-003
  1.000000000000000E-002   -3.320245162715573E-003
  1.010000000000000E-002   -3.447630179234813E-003
  1.020000000000000E-002   -3.579172336779399E-003
  1.030000000000000E-002   -3.714974341385832E-003
  1.040000000000000E-002   -3.855140107858181E-003
  1.050000000000000E-002   -3.999774746354406E-003
  1.060000000000000E-002   -4.148984097745128E-003
  1.070000000000000E-002   -4.302874997636695E-003
  1.080000000000000E-002   -4.461554946754701E-003
  1.090000000000000E-002   -4.625132679483375E-003
  1.100000000000000E-002   -4.793716928486152E-003
  1.110000000000000E-002   -4.967417313580922E-003
  1.120000000000000E-002   -5.146344354513325E-003
  1.130000000000000E-002   -5.330608937587513E-003
  1.140000000000000E-002   -5.520322150860089E-003
  1.150000000000000E-002   -5.715595639655961E-003
  1.160000000000000E-002   -5.916541596235111E-003
  1.170000000000000E-002   -6.123271740334956E-003
  1.180000000000000E-002   -6.335898457365789E-003
  1.190000000000000E-002   -6.554533924066325E-003
  1.200000000000000E-002   -6.779290040911511E-003
  1.210000000000000E-002   -7.010278729250658E-003
  1.220000000000000E-002   -7.247611484788476E-003
  1.230000000000000E-002   -7.491399200765995E-003
  1.240000000000000E-002   -7.741752401910424E-003
  1.250000000000000E-002   -7.998780218450447E-003
  1.260000000000000E-002   -8.262591613923013E-003
  1.270000000000000E-002   -8.533293594663245E-003
  1.280000000000000E-002   -8.810993051899791E-003
  1.290000000000000E-002   -9.095793840142093E-003
  1.300000000000000E-002   -9.387799213397711E-003
  1.310000000000000E-002   -9.687110273935743E-003
  1.320000000000000E-002   -9.993826133660367E-003
  1.330000000000000E-002   -1.030804339227922E-002
  1.340000000000000E-002   -1.062985672155959E-002
  1.350000000000000E-002   -1.095935766883004E-002
  1.360000000000000E-002   -1.129663615493037E-002
  1.370000000000000E-002   -1.164177799882864E-002
  1.380000000000000E-002   -1.199486616727788E-002
  1.390000000000000E-002   -1.235598090146182E-002
  1.400000000000000E-002   -1.272519731868113E-002
  1.410000000000000E-002   -1.310258899459380E-002
  1.420000000000000E-002   -1.348822399106406E-002
  1.430000000000000E-002   -1.388216656874119E-002
  1.440000000000000E-002   -1.428447616431381E-002
  1.450000000000000E-002   -1.469520892480885E-002
  1.460000000000000E-002   -1.511441486469875E-002
  1.470000000000000E-002   -1.554214058482426E-002
  1.480000000000000E-002   -1.597842608447415E-002
  1.490000000000000E-002   -1.642330628320725E-002
  1.500000000000000E-002   -1.687680958108939E-002
  1.510000000000000E-002   -1.733896116484343E-002
  1.520000000000000E-002   -1.780977708382735E-002
  1.530000000000000E-002   -1.828926868733905E-002
  1.540000000000000E-002   -1.877744089874811E-002
  1.550000000000000E-002   -1.927429010525768E-002
  1.560000000000000E-002   -1.977980570738272E-002
  1.570000000000000E-002   -2.029397154502269E-002
  1.580000000000000E-002   -2.081676284698150E-002
  1.590000000000000E-002   -2.134814787592715E-002
  1.600000000000000E-002   -2.188808451953352E-002
  1.610000000000000E-002   -2.243652461769983E-002
  1.620000000000000E-002   -2.299340935384443E-002
  1.630000000000000E-002   -2.355867305195122E-002
  1.640000000000000E-002   -2.413223903776587E-002
  1.650000000000000E-002   -2.471402281000096E-002
  1.660000000000000E-002   -2.530392755555907E-002
  1.670000000000000E-002   -2.590185014510789E-002
  1.680000000000000E-002   -2.650767323248939E-002
  1.690000000000000E-002   -2.712127181602070E-002
  1.700000000000000E-002   -2.774250918510761E-002
  1.710000000000000E-002   -2.837123909918969E-002
  1.720000000000000E-002   -2.900730255883801E-002
  1.730000000000000E-002   -2.965052847604164E-002
  1.740000000000000E-002   -3.030073818792049E-002
  1.750000000000000E-002   -3.095773789364729E-002
  1.760000000000000E-002   -3.162132629446988E-002
  1.770000000000000E-002   -3.229128325229742E-002
  1.780000000000000E-002   -3.296738204328173E-002
  1.790000000000000E-002   -3.364938209501843E-002
  1.800000000000000E-002   -3.433703238373275E-002
  1.810000000000000E-002   -3.503006651136357E-002
  1.820000000000000E-002   -3.572820742157709E-002
  1.830000000000000E-002   -3.643116448395162E-002
  1.840000000000000E-002   -3.713863462722474E-002
  1.850000000000000E-002   -3.785030244783558E-002
  1.860000000000000E-002   -3.856583795930450E-002
  1.870000000000000E-002   -3.928490206705324E-002