 -4.000000000000000E-002    0.000000000000000E+000
 -3.990000000000000E-002    0.000000000000000E+000
 -3.980000000000000E-002   -9.853017951096063E-011
 -3.970000000000000E-002   -4.542204187580827E-010
 -3.960000000000000E-002   -1.248422151549550E-009
 -3.950000000000000E-002   -2.657190676319992E-009
 -3.940000000000000E-002   -4.837566911638292E-009
 -3.930000000000000E-002   -7.929671383905788E-009
 -3.920000000000000E-002   -1.207298745063449E-008
 -3.910000000000000E-002   -1.743266447139852E-008
 -3.900000000000000E-002   -2.422995384573957E-008
 -3.890000000000000E-002   -3.277041020852694E-008
 -3.880000000000000E-002   -4.346323089616706E-008
 -3.870000000000000E-002   -5.682706671356293E-008
 -3.860000000000000E-002   -7.347869509312166E-008
 -3.850000000000000E-002   -9.410400053322856E-008
 -3.840000000000000E-002   -1.194126708466674E-007
 -3.830000000000000E-002   -1.500808482349212E-007
 -3.820000000000000E-002   -1.866877377849547E-007
 -3.810000000000000E-002   -2.296527178001736E-007
 -3.800000000000000E-002   -2.791812450805014E-007
 -3.790000000000000E-002   -3.352261712396454E-007
 -3.780000000000000E-002   -3.974691624756034E-007
 -3.770000000000000E-002   -4.653276390260871E-007
 -3.760000000000000E-002   -5.379854587235821E-007
 -3.750000000000000E-002   -6.144481121369886E-007
 -3.740000000000000E-002   -6.936149415926610E-007
 -3.730000000000000E-002   -7.743642303116507E-007
 -3.720000000000000E-002   -8.556418087140555E-007
 -3.710000000000000E-002   -9.365443347399616E-007
 -3.700000000000000E-002   -1.016388359966829E-006
 -3.690000000000000E-002   -1.094760627652629E-006
 -3.680000000000000E-002   -1.171541948934749E-006
 -3.670000000000000E-002   -1.246903312224858E-006
 -3.660000000000000E-002   -1.321274613627435E-006
 -3.650000000000000E-002   -1.395293096711426E-006
 -3.640000000000000E-002   -1.469730772934341E-006
 -3.630000000000000E-002   -1.545414413942631E-006
 -3.620000000000000E-002   -1.623145729792169E-006
 -3.610000000000000E-002   -1.703630402583715E-006
 -3.600000000000000E-002   -1.787423180271670E-006
 -3.590000000000000E-002   -1.874894757893148E-006
 -3.580000000000000E-002   -1.966229741331627E-006
 -3.570000000000000E-002   -2.061444759140850E-006
 -3.560000000000000E-002   -2.160435799481826E-006
 -3.550000000000000E-002   -2.263047919453830E-006
 -3.540000000000000E-002   -2.369149313441438E-006
 -3.530000000000000E-002   -2.478715778222991E-006
 -3.520000000000000E-002   -2.591915103479851E-006
 -3.510000000000000E-002   -2.709161877637148E-006
 -3.500000000000000E-002   -2.831161208106667E-006
 -3.490000000000000E-002   -2.958933758654925E-006
 -3.480000000000000E-002   -3.093787839888023E-006
 -3.470000000000000E-002   -3.237289820617915E-006
 -3.460000000000000E-002   -3.391188451427132E-006
 -3.450000000000000E-002   -3.557336091863446E-006
 -3.440000000000000E-002   -3.737583764227142E-006
 -3.430000000000000E-002   -3.933684573527620E-006
 -3.420000000000000E-002   -4.147199842334300E-006
 -3.410000000000000E-002   -4.379421658821740E-006
 -3.400000000000000E-002   -4.631319816866089E-006
 -3.390000000000000E-002   -4.903510048989857E-006
 -3.380000000000000E-002   -5.196265363513816E-006
 -3.370000000000000E-002   -5.509539356671756E-006
 -3.360000000000000E-002   -5.843040857965711E-006
 -3.350000000000000E-002   -6.196297065972325E-006
 -3.340000000000000E-002   -6.568750422185579E-006
 -3.330000000000000E-002   -6.959877225312053E-006
 -3.320000000000000E-002   -7.369257545601663E-006
 -3.310000000000000E-002   -7.796665185285330E-006
 -3.300000000000000E-002   -8.242140615619002E-006
 -3.290000000000000E-002   -8.706026348577394E-006
 -3.280000000000000E-002   -9.188969011083228E-006
 -3.270000000000000E-002   -9.691923349210004E-006
 -3.260000000000000E-002   -1.021612110345989E-005
 -3.250000000000000E-002   -1.076301990186623E-005
 -3.240000000000000E-002   -1.133421956149980E-005
 -3.230000000000000E-002   -1.193143931548441E-005
 -3.220000000000000E-002   -1.255640457860715E-005
 -3.210000000000000E-002   -1.321083356214308E-005
 -3.200000000000000E-002   -1.389638577614066E-005
 -3.190000000000000E-002   -1.461464507417735E-005
 -3.180000000000000E-002   -1.536709921780805E-005
 -3.170000000000000E-002   -1.615517894999619E-005
 -3.160000000000000E-002   -1.698028733406334E-005
 -3.150000000000000E-002   -1.784380607819588E-005
 -3.140000000000000E-002   -1.874717624192758E-005
 -3.130000000000000E-002   -1.969189210614544E-005
 -3.120000000000000E-002   -2.067958078175836E-005
 -3.110000000000000E-002   -2.171197784370257E-005
 -3.100000000000000E-002   -2.279094937729712E-005
 -3.090000000000000E-002   -2.391846232118573E-005
 -3.080000000000000E-002   -2.509654441400135E-005
 -3.070000000000000E-002   -2.632729438074204E-005
 -3.060000000000000E-002   -2.761276383004746E-005
 -3.050000000000000E-002   -2.895494173218882E-005
 -3.040000000000000E-002   -3.035578001129278E-005
 -3.030000000000000E-002   -3.181706751171549E-005
 -3.020000000000000E-002   -3.334054181473457E-005
 -3.010000000000000E-002   -3.492777862529645E-005
 -3.000000000000000E-002   -3.658033101038518E-005
 -2.990000000000000E-002   -3.829980920369395E-005
 -2.980000000000000E-002   -4.008783531746183E-005
 -2.970000000000000E-002   -4.194633300187614E-005
 -2.960000000000000E-002   -4.387738237021237E-005
 -2.950000000000000E-002   -4.588351997533702E-005
 -2.940000000000000E-002   -4.796760311300718E-005
 -2.930000000000000E-002   -5.013300178600125E-005
 -2.920000000000000E-002   -5.238354772554892E-005
 -2.910000000000000E-002   -5.472341442635745E-005
 -2.900000000000000E-002   -5.715725255824473E-005
 -2.890000000000000E-002   -5.968989909121573E-005
 -2.880000000000000E-002   -6.232633830062501E-005
 -2.870000000000000E-002   -6.507164310193400E-005
 -2.860000000000000E-002   -6.793079291604755E-005
 -2.850000000000000E-002   -7.090848286203395E-005
 -2.840000000000000E-002   -7.400905214287247E-005
 -2.830000000000000E-002   -7.723660111764639E-005
 -2.820000000000000E-002   -8.059476026969547E-005
 -2.810000000000000E-002   -8.408659912105711E-005
 -2.800000000000000E-002   -8.771492521911689E-005
 -2.790000000000000E-002   -9.148230098539952E-005
 -2.780000000000000E-002   -9.539066524600086E-005
 -2.770000000000000E-002   -9.944229795007199E-005
 -2.760000000000000E-002   -1.036392148488966E-004
 -2.750000000000000E-002   -1.079835294383156E-004
 -2.740000000000000E-002   -1.124777277952032E-004
 -2.730000000000000E-002   -1.171242993325211E-004
 -2.720000000000000E-002   -1.219260465845879E-004
 -2.710000000000000E-002   -1.268862454897589E-004
 -2.700000000000000E-002   -1.320082173201128E-004
 -2.690000000000000E-002   -1.372956607976289E-004
 -2.680000000000000E-002   -1.427523240809136E-004
 -2.670000000000000E-002   -1.483822533218297E-004
 -2.660000000000000E-002   -1.541892998909251E-004
 -2.650000000000000E-002   -1.601773106100925E-004
 -2.640000000000000E-002   -1.663500056937412E-004
 -2.630000000000000E-002   -1.727107408685609E-004
 -2.620000000000000E-002   -1.792629544765157E-004
 -2.610000000000000E-002   -1.860093993272648E-004
 -2.600000000000000E-002   -1.929528511690770E-004
 -2.590000000000000E-002   -2.000961450303765E-004
 -2.580000000000000E-002   -2.074415616331606E-004
 -2.570000000000000E-002   -2.149913398035584E-004
 -2.560000000000000E-002   -2.227477424968283E-004
 -2.550000000000000E-002   -2.307129036162345E-004
 -2.540000000000000E-002   -2.388887857547664E-004
 -2.530000000000000E-002   -2.472776865801414E-004
 -2.520000000000000E-002   -2.558816132226236E-004
 -2.510000000000000E-002   -2.647023437014166E-004
 -2.500000000000000E-002   -2.737421892090421E-004
 -2.490000000000000E-002   -2.830018639686303E-004
 -2.480000000000000E-002   -2.924828028486102E-004
 -2.470000000000000E-002   -3.021857111373456E-004
 -2.460000000000000E-002   -3.121113580796717E-004
 -2.450000000000000E-002   -3.222589358544553E-004
 -2.440000000000000E-002   -3.326276179904451E-004
 -2.430000000000000E-002   -3.432162302563707E-004
 -2.420000000000000E-002   -3.540218843442774E-004
 -2.410000000000000E-002   -3.650429686532716E-004
 -2.400000000000000E-002   -3.762751286790051E-004
 -2.390000000000000E-002   -3.877146203665424E-004
 -2.380000000000000E-002   -3.993568711921575E-004
 -2.370000000000000E-002   -4.111968484673146E-004
 -2.360000000000000E-002   -4.232285357381482E-004
 -2.350000000000000E-002   -4.354461780237697E-004
 -2.340000000000000E-002   -4.478424787275185E-004
 -2.330000000000000E-002   -4.604107168622051E-004
 -2.320000000000000E-002   -4.731439091346674E-004
 -2.310000000000000E-002   -4.860322527833281E-004
 -2.300000000000000E-002   -4.990678583808488E-004
 -2.290000000000000E-002   -5.122406733893536E-004
 -2.280000000000000E-002   -5.255406586300408E-004
 -2.270000000000000E-002   -5.389560935735952E-004
 -2.260000000000000E-002   -5.524739258602829E-004
 -2.250000000000000E-002   -5.660808321751865E-004
 -2.240000000000000E-002   -5.797616381614818E-004
 -2.230000000000000E-002   -5.935002146052661E-004
 -2.220000000000000E-002   -6.072808272604840E-004
 -2.210000000000000E-002   -6.210828609660383E-004
 -2.200000000000000E-002   -6.348875435486087E-004
 -2.190000000000000E-002   -6.486741922470934E-004
 -2.180000000000000E-002   -6.624192219210588E-004
 -2.170000000000000E-002   -6.760997107548737E-004
 -2.160000000000000E-002   -6.896897897072608E-004
 -2.150000000000000E-002   -7.031640564422537E-004
 -2.140000000000000E-002   -7.164933363697900E-004
 -2.130000000000000E-002   -7.296485885427088E-004
 -2.120000000000000E-002   -7.426008522259473E-004
 -2.110000000000000E-002   -7.553175669858126E-004
 -2.100000000000000E-002   -7.677648284385285E-004
 -2.090000000000000E-002   -7.799072621801940E-004
 -2.080000000000000E-002   -7.917066947923743E-004
 -2.070000000000000E-002   -8.031248645087342E-004
 -2.060000000000000E-002   -8.141185434085221E-004
 -2.050000000000000E-002   -8.246469736346747E-004
 -2.040000000000000E-002   -8.346625195025069E-004
 -2.030000000000000E-002   -8.441199453902998E-004
 -2.020000000000000E-002   -8.529679482049742E-004
 -2.010000000000000E-002   -8.611559999504494E-004
 -2.000000000000000E-002   -8.686286873591763E-004
 -1.990000000000000E-002   -8.753299348319889E-004
 -1.980000000000000E-002   -8.812032363915683E-004
 -1.970000000000000E-002   -8.861880358025567E-004
 -1.960000000000000E-002   -8.902216744478813E-004
 -1.950000000000000E-002   -8.932417818161391E-004
 -1.940000000000000E-002   -8.951787348677378E-004
 -1.930000000000000E-002   -8.959648433243539E-004
 -1.920000000000000E-002   -8.955314903475835E-004
 -1.910000000000000E-002   -8.938017725078039E-004
 -1.900000000000000E-002   -8.907022448158969E-004
 -1.890000000000000E-002   -8.861539519736290E-004
 -1.880000000000000E-002   -8.800770879132877E-004
 -1.870000000000000E-002   -8.723865035779946E-004
 -1.860000000000000E-002   -8.629945599264548E-004
 -1.850000000000000E-002   -8.518094763644256E-004
 -1.840000000000000E-002   -8.387401453592222E-004
 -1.830000000000000E-002   -8.236885854252217E-004
 -1.820000000000000E-002   -8.065569142955697E-004
 -1.810000000000000E-002   -7.872432638553750E-004
 -1.800000000000000E-002   -7.656403581285491E-004
 -1.790000000000000E-002   -7.416460615469536E-004
 -1.780000000000000E-002   -7.151512459219952E-004
 -1.770000000000000E-002   -6.860422136759220E-004
 -1.760000000000000E-002   -6.542029117979596E-004
 -1.750000000000000E-002   -6.195211562516900E-004
 -1.740000000000000E-002   -5.818782388060870E-004
 -1.730000000000000E-002   -5.411507817763631E-004
 -1.720000000000000E-002   -4.972158825916617E-004
 -1.710000000000000E-002   -4.499526848224453E-004
 -1.700000000000000E-002   -3.992247319551182E-004
 -1.690000000000000E-002   -3.449010427587842E-004
 -1.680000000000000E-002   -2.868492159791014E-004
 -1.670000000000000E-002   -2.249331659570780E-004
 -1.660000000000000E-002   -1.590129395282885E-004
 -1.650000000000000E-002   -8.894180930694995E-005
 -1.640000000000000E-002   -1.457151519937416E-005
 -1.630000000000000E-002    6.423738899299231E-005
 -1.620000000000000E-002    1.476432747339398E-004
 -1.610000000000000E-002    2.357882006934001E-004
 -1.600000000000000E-002    3.288367622317490E-004
 -1.590000000000000E-002    4.269334888126960E-004
 -1.580000000000000E-002    5.302453090597140E-004
 -1.570000000000000E-002    6.389270647854384E-004
 -1.560000000000000E-002    7.531446206911693E-004
 -1.550000000000000E-002    8.730649239403962E-004
 -1.540000000000000E-002    9.988389939282957E-004
 -1.530000000000000E-002    1.130636774833625E-003
 -1.520000000000000E-002    1.268635572134455E-003
 -1.510000000000000E-002    1.412997232049955E-003
 -1.500000000000000E-002    1.563883570205676E-003
 -1.490000000000000E-002    1.721472673933876E-003
 -1.480000000000000E-002    1.885937274332637E-003
 -1.470000000000000E-002    2.057445967243103E-003
 -1.460000000000000E-002    2.236167402576317E-003
 -1.450000000000000E-002    2.422281537699716E-003
 -1.440000000000000E-002    2.615955282217551E-003
 -1.430000000000000E-002    2.817370470811958E-003
 -1.420000000000000E-002    3.026693375737077E-003
 -1.410000000000000E-002    3.244099376076212E-003
 -1.400000000000000E-002    3.469753743602796E-003
 -1.390000000000000E-002    3.703824261002131E-003
 -1.380000000000000E-002    3.946477977821036E-003
 -1.370000000000000E-002    4.197891776755863E-003
 -1.360000000000000E-002    4.458227085443217E-003
 -1.350000000000000E-002    4.727646179479988E-003
 -1.340000000000000E-002    5.006291570995552E-003
 -1.330000000000000E-002    5.294336400896493E-003
 -1.320000000000000E-002    5.591934661428863E-003
 -1.310000000000000E-002    5.899229174515408E-003
 -1.300000000000000E-002    6.216378667558170E-003
 -1.290000000000000E-002    6.543516150739975E-003
 -1.280000000000000E-002    6.880808202018945E-003
 -1.270000000000000E-002    7.228369836401738E-003
 -1.260000000000000E-002    7.586353211206695E-003
 -1.250000000000000E-002    7.954900179760013E-003
 -1.240000000000000E-002    8.334106075537862E-003
 -1.230000000000000E-002    8.724111355803171E-003
 -1.220000000000000E-002    9.125025330523784E-003
 -1.210000000000000E-002    9.536954865836750E-003
 -1.200000000000000E-002    9.959999901655026E-003
 -1.190000000000000E-002    1.039427543844772E-002
 -1.180000000000000E-002    1.083985895083495E-002
 -1.170000000000000E-002    1.129683463264029E-002
 -1.160000000000000E-002    1.176526834672564E-002
 -1.150000000000000E-002    1.224525394937744E-002
 -1.140000000000000E-002    1.273682724155792E-002
 -1.130000000000000E-002    1.324005591766626E-002
 -1.120000000000000E-002    1.375498305296668E-002
 -1.110000000000000E-002    1.428164123563100E-002
 -1.100000000000000E-002    1.482006036828690E-002
 -1.090000000000000E-002    1.537026464972403E-002
 -1.080000000000000E-002    1.593225355547997E-002
 -1.070000000000000E-002    1.650603819347198E-002
 -1.060000000000000E-002    1.709161160758822E-002
 -1.050000000000000E-002    1.768895249148071E-002
 -1.040000000000000E-002    1.829800571922645E-002
 -1.030000000000000E-002    1.891873434546910E-002
 -1.020000000000000E-002    1.955108272839386E-002
 -1.010000000000000E-002    2.019498077679456E-002
 -1.000000000000000E-002    2.085035451287032E-002
 -9.899999999999999E-003    2.151709976122275E-002
 -9.800000000000000E-003    2.219512229548742E-002
 -9.699999999999999E-003    2.288430247928108E-002
 -9.599999999999999E-003    2.358451321034692E-002
 -9.500000000000000E-003    2.429561069806417E-002
 -9.399999999999999E-003    2.501743619789691E-002
 -9.299999999999999E-003    2.574981315868995E-002
 -9.200000000000000E-003    2.649256841695095E-002
 -9.099999999999999E-003    2.724548493363495E-002
 -8.999999999999999E-003    2.800837323734444E-002
 -8.900000000000000E-003    2.878098869194363E-002
 -8.799999999999999E-003    2.956310643900106E-002
 -8.699999999999999E-003    3.035446275096033E-002
 -8.600000000000000E-003    3.115477970475490E-002
 -8.499999999999999E-003    3.196378913745296E-002
 -8.399999999999999E-003    3.278117338384190E-002
 -8.300000000000000E-003    3.360662315435313E-002
 -8.199999999999999E-003    3.443981132216163E-002
 -8.100000000000000E-003    3.528038685178220E-002
 -8.000000000000000E-003    3.612799814283695E-002
 -7.899999999999999E-003    3.698227043414176E-002
 -7.800000000000000E-003    3.784279638026922E-002
 -7.699999999999999E-003    3.870918120992661E-002
 -7.599999999999999E-003    3.958098894624482E-002
 -7.499999999999999E-003    4.045778243183698E-002
 -7.399999999999999E-003    4.133912680823298E-002
 -7.299999999999999E-003    4.222453682431227E-002
 -7.199999999999999E-003    4.311353757848167E-002
 -7.100000000000000E-003    4.400563296679152E-002
 -6.999999999999999E-003    4.490030714413822E-002
 -6.899999999999999E-003    4.579703713605464E-002
 -6.800000000000000E-003    4.669528247100053E-002
 -6.699999999999999E-003    4.759449492046443E-002
 -6.599999999999999E-003    4.849410185819269E-002
 -6.499999999999999E-003    4.939352003019623E-002
 -6.399999999999999E-003    5.029214618476881E-002
 -6.299999999999999E-003    5.118937968208693E-002
 -6.199999999999999E-003    5.208459045404445E-002
 -6.100000000000000E-003    5.297715517219229E-002
 -5.999999999999999E-003    5.386641145362069E-002
 -5.899999999999999E-003    5.475171931314320E-002
 -5.800000000000000E-003    5.563239858265306E-002
 -5.699999999999999E-003    5.650776502815373E-002
 -5.599999999999999E-003    5.737712596416154E-002
 -5.499999999999999E-003    5.823979124614916E-002
 -5.399999999999999E-003    5.909504680299105E-002
 -5.299999999999999E-003    5.994216519620008E-002
 -5.199999999999999E-003    6.078042393949655E-002
 -5.099999999999999E-003    6.160909044556130E-002
 -4.999999999999999E-003    6.242742646514338E-002
 -4.899999999999999E-003    6.323468248895533E-002
 -4.799999999999999E-003    6.403008587650794E-002
 -4.699999999999999E-003    6.481289379793122E-002
 -4.599999999999999E-003    6.558232671800200E-002
 -4.499999999999999E-003    6.633761113861034E-002
 -4.399999999999999E-003    6.707796966148333E-002
 -4.299999999999999E-003    6.780262800870412E-002
 -4.199999999999999E-003    6.851080258233685E-002
 -4.099999999999999E-003    6.920170715328318E-002
 -3.999999999999999E-003    6.987456629417781E-002
 -3.899999999999999E-003    7.052858743571076E-002
 -3.799999999999999E-003    7.116298192699466E-002
 -3.699999999999999E-003    7.177697675587939E-002
 -3.599999999999999E-003    7.236978344090345E-002
 -3.499999999999999E-003    7.294062662968107E-002
 -3.399999999999999E-003    7.348873216290278E-002
 -3.299999999999999E-003    7.401334033731299E-002
 -3.199999999999999E-003    7.451367409985028E-002
 -3.099999999999999E-003    7.498898461887726E-002
 -2.999999999999999E-003    7.543850936188798E-002
 -2.899999999999999E-003    7.586152283034846E-002
 -2.799999999999999E-003    7.625727483265839E-002
 -2.699999999999999E-003    7.662504110965369E-002
 -2.599999999999999E-003    7.696410694971931E-002
 -2.499999999999999E-003    7.727376598298236E-002
 -2.399999999999999E-003    7.755332677429676E-002
 -2.299999999999999E-003    7.780209802215675E-002
 -2.199999999999999E-003    7.801941407162540E-002
 -2.099999999999999E-003    7.820463169322084E-002
 -1.999999999999999E-003    7.835710122193962E-002
 -1.899999999999999E-003    7.847620311213795E-002
 -1.799999999999999E-003    7.856132291026909E-002
 -1.699999999999999E-003    7.861188552750256E-002
 -1.599999999999999E-003    7.862731653306586E-002
 -1.499999999999999E-003    7.860705570524724E-002
 -1.399999999999999E-003    7.855057648207181E-002
 -1.299999999999999E-003    7.845737503094448E-002
 -1.199999999999999E-003    7.832694472295511E-002
 -1.099999999999999E-003    7.815883974852728E-002
 -9.999999999999989E-004    7.795260209173786E-002
 -8.999999999999990E-004    7.770781395209869E-002
 -7.999999999999990E-004    7.742406608283792E-002
 -6.999999999999989E-004    7.710099850460156E-002
 -5.999999999999990E-004    7.673825257899014E-002
 -4.999999999999989E-004    7.633551810937736E-002
 -3.999999999999989E-004    7.589249436688797E-002
 -2.999999999999989E-004    7.540890065514286E-002
 -1.999999999999989E-004    7.488452036668136E-002
 -9.999999999999892E-005    7.431912291457078E-002
  1.084202172485504E-018    7.371251740825543E-002
  1.000000000000011E-004    7.306457120976521E-002
  2.000000000000011E-004    7.237515816223879E-002
  3.000000000000011E-004    7.164420867808262E-002
  4.000000000000011E-004    7.087161622218993E-002
  5.000000000000011E-004    7.005735973383383E-002
  6.000000000000011E-004    6.920145095294777E-002
  7.000000000000011E-004    6.830391840041061E-002
  8.000000000000011E-004    6.736481672931538E-002
  9.000000000000012E-004    6.638425495182240E-002
  1.000000000000001E-003    6.536235598951859E-002
  1.100000000000001E-003    6.429926955956769E-002
  1.200000000000001E-003    6.319517723112292E-002
  1.300000000000001E-003    6.205034337216855E-002
  1.400000000000001E-003    6.086497754200744E-002
  1.500000000000001E-003    5.963941425057233E-002
  1.600000000000001E-003    5.837394078175713E-002
  1.700000000000001E-003    5.706892793371797E-002
  1.800000000000001E-003    5.572474852340777E-002
  1.900000000000001E-003    5.434186633700991E-002
  2.000000000000001E-003    5.292066769203027E-002
  2.100000000000001E-003    5.146168202905720E-002
  2.200000000000001E-003    4.996540462239399E-002
  2.300000000000001E-003    4.843239898600404E-002
  2.400000000000001E-003    4.686324611364853E-002
  2.500000000000001E-003    4.525855882138352E-002
  2.600000000000001E-003    4.361897776719853E-002
  2.700000000000001E-003    4.194519715609257E-002
  2.800000000000001E-003    4.023789401841296E-002
  2.900000000000001E-003    3.849785476254464E-002
  3.000000000000001E-003    3.672580801542702E-002
  3.100000000000001E-003    3.492254734084832E-002
  3.200000000000001E-003    3.308888914525093E-002
  3.300000000000001E-003    3.122570616825923E-002
  3.400000000000001E-003    2.933383960966432E-002
  3.500000000000001E-003    2.741420444294060E-002
  3.600000000000001E-003    2.546775541317098E-002
  3.700000000000001E-003    2.349542179312225E-002
  3.800000000000001E-003    2.149816554139047E-002
  3.900000000000001E-003    1.947699910668879E-002
  4.000000000000001E-003    1.743291719151993E-002
  4.100000000000001E-003    1.536699015865323E-002
  4.200000000000001E-003    1.328028826410771E-002
  4.300000000000001E-003    1.117388611790437E-002
  4.400000000000001E-003    9.048920034808755E-003
  4.500000000000001E-003    6.906489215211364E-003
  4.600000000000002E-003    4.747713407743409E-003
  4.700000000000001E-003    2.573768375563362E-003
  4.800000000000001E-003    3.858446902677837E-004
  4.900000000000002E-003   -1.814903918368055E-003
  5.000000000000001E-003   -4.027236542993751E-003
  5.100000000000001E-003   -6.249943861966478E-003
  5.200000000000001E-003   -8.481815453250718E-003
  5.300000000000002E-003   -1.072162534799334E-002
  5.400000000000001E-003   -1.296811317540286E-002
  5.500000000000001E-003   -1.522003953205642E-002
  5.600000000000002E-003   -1.747615526750185E-002
  5.700000000000001E-003   -1.973517717681766E-002
  5.800000000000001E-003   -2.199583499115076E-002
  5.900000000000002E-003   -2.425686655753834E-002
  6.000000000000001E-003   -2.651700043329341E-002
  6.100000000000001E-003   -2.877495178529318E-002
  6.200000000000002E-003   -3.102945138577048E-002
  6.300000000000002E-003   -3.327921528153313E-002
  6.400000000000001E-003   -3.552294855927560E-002
  6.500000000000001E-003   -3.775940415248499E-002
  6.600000000000002E-003   -3.998728167154067E-002
  6.700000000000001E-003   -4.220533217027986E-002
  6.800000000000001E-003   -4.441227220601764E-002
  6.900000000000002E-003   -4.660687026768075E-002
  7.000000000000001E-003   -4.878788080632636E-002
  7.100000000000001E-003   -5.095406671584443E-002
  7.200000000000002E-003   -5.310419444844985E-002
  7.300000000000002E-003   -5.523708303091618E-002
  7.400000000000001E-003   -5.735150320342644E-002
  7.500000000000001E-003   -5.944627404125857E-002
  7.600000000000002E-003   -6.152025439368147E-002
  7.700000000000001E-003   -6.357226878912080E-002
  7.800000000000001E-003   -6.560117389405791E-002
  7.900000000000001E-003   -6.760586397943615E-002
  8.000000000000002E-003   -6.958522368962360E-002
  8.100000000000001E-003   -7.153817771186112E-002
  8.200000000000001E-003   -7.346366077804639E-002
  8.300000000000002E-003   -7.536064210718003E-002
  8.400000000000001E-003   -7.722808973871338E-002
  8.500000000000002E-003   -7.906501643845669E-002
  8.600000000000002E-003   -8.087043136917799E-002
  8.700000000000001E-003   -8.264337429727864E-002
  8.800000000000002E-003   -8.438292252469531E-002
  8.900000000000002E-003   -8.608820093050468E-002
  9.000000000000001E-003   -8.775830544788366E-002
  9.100000000000002E-003   -8.939241347822230E-002
  9.200000000000002E-003   -9.098970424522945E-002
  9.300000000000001E-003   -9.254938178340107E-002
  9.400000000000002E-003   -9.407069922987046E-002
  9.500000000000001E-003   -9.555290616762208E-002
  9.600000000000001E-003   -9.699533017038692E-002
  9.700000000000002E-003   -9.839727385796512E-002
  9.800000000000001E-003   -9.975812477101617E-002
  9.900000000000001E-003   -0.101077266045485     
  1.000000000000000E-002   -0.102354101548380     
  1.010000000000000E-002   -0.103588101339559     
  1.020000000000000E-002   -0.104778739468247     
  1.030000000000000E-002   -0.105925548242198     
  1.040000000000000E-002   -0.107028086043118     
  1.050000000000000E-002   -0.108085916250153     
  1.060000000000000E-002   -0.109098649814823     
  1.070000000000000E-002   -0.110065944252985     
  1.080000000000000E-002   -0.110987504727585     
  1.090000000000000E-002   -0.111863027403286     
  1.100000000000000E-002   -0.112692248946883     
  1.110000000000000E-002   -0.113474968812617     
  1.120000000000000E-002   -0.114210987501888     
  1.130000000000000E-002   -0.114900165255671     
  1.140000000000000E-002   -0.115542384469160     
  1.150000000000000E-002   -0.116137568922586     
  1.160000000000000E-002   -0.116685639653628     
  1.170000000000000E-002   -0.117186589985157     
  1.180000000000000E-002   -0.117640436139045     
  1.190000000000000E-002   -0.118047209713778     
  1.200000000000000E-002   -0.118406974774634     
  1.210000000000000E-002   -0.118719856641086     
  1.220000000000000E-002   -0.118985976898018     
  1.230000000000000E-002   -0.119205498490461     
  1.240000000000000E-002   -0.119378621642197     
  1.250000000000000E-002   -0.119505568458396     
  1.260000000000000E-002   -0.119586605686697     
  1.270000000000000E-002   -0.119621997944813     
  1.280000000000000E-002   -0.119612072364614     
  1.290000000000000E-002   -0.119557159394394     
  1.300000000000000E-002   -0.119457626499370     
  1.310000000000000E-002   -0.119313878444907     
  1.320000000000000E-002   -0.119126340987130     
  1.330000000000000E-002   -0.118895454978037     
  1.340000000000000E-002   -0.118621698541776     
  1.350000000000000E-002   -0.118305565953928     
  1.360000000000000E-002   -0.117947572497153     
  1.370000000000000E-002   -0.117548261322832     
  1.380000000000000E-002   -0.117108195417318     
  1.390000000000000E-002   -0.116627959832843     
  1.400000000000000E-002   -0.116108157868448     
  1.410000000000000E-002   -0.115549407596720     
  1.420000000000000E-002   -0.114952341259700     
  1.430000000000000E-002   -0.114317627139094     
  1.440000000000000E-002   -0.113645946049132     
  1.450000000000000E-002   -0.112937983506152     
  1.460000000000000E-002   -0.112194442605231     
  1.470000000000000E-002   -0.111416061946691     
  1.480000000000000E-002   -0.110603577326176     
  1.490000000000000E-002   -0.109757740849274     
  1.500000000000000E-002   -0.108879333978178     
  1.510000000000000E-002   -0.107969134524677     
  1.520000000000000E-002   -0.107027939040771     
  1.530000000000000E-002   -0.106056563732825     
  1.540000000000000E-002   -0.105055808650042     
  1.550000000000000E-002   -0.104026499835898     
  1.560000000000000E-002   -0.102969468098852     
  1.570000000000000E-002   -0.101885552169455     
  1.580000000000000E-002   -0.100775597402527     
  1.590000000000000E-002   -9.964044649385279E-002
  1.600000000000000E-002   -9.848095185094687E-002
  1.610000000000000E-002   -9.729797111288892E-002
  1.620000000000000E-002   -9.609236539548875E-002
  1.630000000000000E-002   -9.486500111955223E-002
  1.640000000000000E-002   -9.361673993589231E-002
  1.650000000000000E-002   -9.234845508887629E-002
  1.660000000000000E-002   -9.106101460941390E-002
  1.670000000000000E-002   -8.975529083764339E-002
  1.680000000000000E-002   -8.843215974782023E-002
  1.690000000000000E-002   -8.709248234050351E-002
  1.700000000000000E-002   -8.573713245342944E-002
  1.710000000000000E-002   -8.436698539941466E-002
  1.720000000000000E-002   -8.298289621005164E-002
  1.730000000000000E-002   -8.158572065861938E-002
  1.740000000000000E-002   -8.017631420295336E-002
  1.750000000000000E-002   -7.875552199223064E-002
  1.760000000000000E-002   -7.732418823412850E-002
  1.770000000000000E-002   -7.588314312365360E-002
  1.780000000000000E-002   -7.443320801485781E-002
  1.790000000000000E-002   -7.297521473194618E-002
  1.800000000000000E-002   -7.150995244576980E-002
  1.810000000000000E-002   -7.003823874959583E-002
  1.820000000000000E-002   -6.856085813109572E-002
  1.830000000000000E-002   -6.707861145619760E-002
  1.840000000000000E-002   -6.559226791054154E-002
  1.850000000000000E-002   -6.410258655065770E-002
  1.860000000000000E-002   -6.261032311380185E-002
  1.870000000000000E-002   -6.111624118176025E-002