 -4.000000000000000E-002    0.000000000000000E+000
 -3.990000000000000E-002    0.000000000000000E+000
 -3.980000000000000E-002    0.000000000000000E+000
 -3.970000000000000E-002    0.000000000000000E+000
 -3.960000000000000E-002    0.000000000000000E+000
 -3.950000000000000E-002    0.000000000000000E+000
 -3.940000000000000E-002    0.000000000000000E+000
 -3.930000000000000E-002    0.000000000000000E+000
 -3.920000000000000E-002    0.000000000000000E+000
 -3.910000000000000E-002    0.000000000000000E+000
 -3.900000000000000E-002    0.000000000000000E+000
 -3.890000000000000E-002    0.000000000000000E+000
 -3.880000000000000E-002    0.000000000000000E+000
 -3.870000000000000E-002    0.000000000000000E+000
 -3.860000000000000E-002    0.000000000000000E+000
 -3.850000000000000E-002    0.000000000000000E+000
 -3.840000000000000E-002    0.000000000000000E+000
 -3.830000000000000E-002    0.000000000000000E+000
 -3.820000000000000E-002    0.000000000000000E+000
 -3.810000000000000E-002    0.000000000000000E+000
 -3.800000000000000E-002    0.000000000000000E+000
 -3.790000000000000E-002    0.000000000000000E+000
 -3.780000000000000E-002    0.000000000000000E+000
 -3.770000000000000E-002    0.000000000000000E+000
 -3.760000000000000E-002    0.000000000000000E+000
 -3.750000000000000E-002    0.000000000000000E+000
 -3.740000000000000E-002    0.000000000000000E+000
 -3.730000000000000E-002    5.694317058220838E-047
 -3.720000000000000E-002    2.192198352565385E-046
 -3.710000000000000E-002    6.491066586973204E-046
 -3.700000000000000E-002    1.821820553828500E-045
 -3.690000000000000E-002    4.411926513004725E-045
 -3.680000000000000E-002    9.981526745968888E-045
 -3.670000000000000E-002    1.420935548146521E-044
 -3.660000000000000E-002   -4.705212619652557E-046
 -3.650000000000000E-002   -1.071242580848825E-043
 -3.640000000000000E-002   -5.252950816277409E-043
 -3.630000000000000E-002   -1.841152687572767E-042
 -3.620000000000000E-002   -5.442599738982396E-042
 -3.610000000000000E-002   -1.428590151912405E-041
 -3.600000000000000E-002   -3.402045798678715E-041
 -3.590000000000000E-002   -7.415167188972022E-041
 -3.580000000000000E-002   -1.480128984910252E-040
 -3.570000000000000E-002   -2.684418447468351E-040
 -3.560000000000000E-002   -4.327696301555669E-040
 -3.550000000000000E-002   -5.858844453981407E-040
 -3.540000000000000E-002   -5.448080566297837E-040
 -3.530000000000000E-002    1.343117262185123E-040
 -3.520000000000000E-002    2.358065455171911E-039
 -3.510000000000000E-002    7.746083540465962E-039
 -3.500000000000000E-002    1.883404661340102E-038
 -3.490000000000000E-002    3.899152272846546E-038
 -3.480000000000000E-002    7.159169304659636E-038
 -3.470000000000000E-002    1.176746769696296E-037
 -3.460000000000000E-002    1.710567041703999E-037
 -3.450000000000000E-002    2.097415389482573E-037
 -3.440000000000000E-002    1.829342186107896E-037
 -3.430000000000000E-002   -5.532381906422590E-039
 -3.420000000000000E-002   -5.133161510161563E-037
 -3.410000000000000E-002   -1.565634590768944E-036
 -3.400000000000000E-002   -3.433660123235210E-036
 -3.390000000000000E-002   -6.358031833146926E-036
 -3.380000000000000E-002   -1.038196592284016E-035
 -3.370000000000000E-002   -1.505703140136413E-035
 -3.360000000000000E-002   -1.899906651750726E-035
 -3.350000000000000E-002   -1.931378882323366E-035
 -3.340000000000000E-002   -1.099391014676814E-035
 -3.330000000000000E-002    1.347956358079770E-035
 -3.320000000000000E-002    6.392299662666629E-035
 -3.310000000000000E-002    1.510185628155265E-034
 -3.300000000000000E-002    2.829063853441408E-034
 -3.290000000000000E-002    4.590297495732025E-034
 -3.280000000000000E-002    6.607384037569065E-034
 -3.270000000000000E-002    8.388891826869453E-034
 -3.260000000000000E-002    9.000299403954626E-034
 -3.250000000000000E-002    6.947805588419738E-034
 -3.240000000000000E-002    1.462253286213129E-035
 -3.230000000000000E-002   -1.393929201376324E-033
 -3.220000000000000E-002   -3.786663340277969E-033
 -3.210000000000000E-002   -7.339114024717893E-033
 -3.200000000000000E-002   -1.201580688908080E-032
 -3.190000000000000E-002   -1.739117863004332E-032
 -3.180000000000000E-002   -2.243661360300205E-032
 -3.170000000000000E-002   -2.530935188042399E-032
 -3.160000000000000E-002   -2.320582279764369E-032
 -3.150000000000000E-002   -1.237041497295666E-032
 -3.140000000000000E-002    1.162564671212066E-032
 -3.130000000000000E-002    5.321111303114643E-032
 -3.120000000000000E-002    1.156386230313940E-031
 -3.110000000000000E-002    1.992490284848037E-031
 -3.100000000000000E-002    2.992164070417045E-031
 -3.090000000000000E-002    4.029585778985982E-031
 -3.080000000000000E-002    4.875852779577810E-031
 -3.070000000000000E-002    5.179701502819944E-031
 -3.060000000000000E-002    4.462467146110095E-031
 -3.050000000000000E-002    2.137085235954666E-031
 -3.040000000000000E-002   -2.438038911587646E-031
 -3.030000000000000E-002   -9.859630004677928E-031
 -3.020000000000000E-002   -2.052577558401152E-030
 -3.010000000000000E-002   -3.442294613160572E-030
 -3.000000000000000E-002   -5.085574352925806E-030
 -2.990000000000000E-002   -6.813174854863580E-030
 -2.980000000000000E-002   -8.322914338334060E-030
 -2.970000000000000E-002   -9.149633203741869E-030
 -2.960000000000000E-002   -8.646185919382523E-030
 -2.950000000000000E-002   -5.986979698930382E-030
 -2.940000000000000E-002   -2.098097670382803E-031
 -2.930000000000000E-002    9.684138153881805E-030
 -2.920000000000000E-002    2.454962539434802E-029
 -2.910000000000000E-002    4.481450467549475E-029
 -2.900000000000000E-002    7.008085280447613E-029
 -2.890000000000000E-002    9.861419440890322E-029
 -2.880000000000000E-002    1.267565176601908E-028
 -2.870000000000000E-002    1.483461976705737E-028
 -2.860000000000000E-002    1.542898674101985E-028
 -2.850000000000000E-002    1.325017165805673E-028
 -2.840000000000000E-002    6.849095331244263E-029
 -2.830000000000000E-002   -5.308285794370482E-029
 -2.820000000000000E-002   -2.455837254783119E-028
 -2.810000000000000E-002   -5.161055444553750E-028
 -2.800000000000000E-002   -8.597403883820750E-028
 -2.790000000000000E-002   -1.252805637088210E-027
 -2.780000000000000E-002   -1.645928553126312E-027
 -2.770000000000000E-002   -1.958482155885019E-027
 -2.760000000000000E-002   -2.076462574966780E-027
 -2.750000000000000E-002   -1.856348864842415E-027
 -2.740000000000000E-002   -1.137606629887685E-027
 -2.730000000000000E-002    2.339328524499023E-028
 -2.720000000000000E-002    2.370756360639952E-027
 -2.710000000000000E-002    5.297387190550084E-027
 -2.700000000000000E-002    8.896986461189957E-027
 -2.690000000000000E-002    1.285817939492695E-026
 -2.680000000000000E-002    1.663308943658067E-026
 -2.670000000000000E-002    1.942061834881677E-026
 -2.660000000000000E-002    2.019056360169418E-026
 -2.650000000000000E-002    1.776319795872906E-026
 -2.640000000000000E-002    1.095458691629081E-026
 -2.630000000000000E-002   -1.210356125519164E-027
 -2.620000000000000E-002   -1.922717819134943E-026
 -2.610000000000000E-002   -4.280858691693032E-026
 -2.600000000000000E-002   -7.058958336626002E-026
 -2.590000000000000E-002   -9.989617211020145E-026
 -2.580000000000000E-002   -1.266419110022381E-025
 -2.570000000000000E-002   -1.454171217914741E-025
 -2.560000000000000E-002   -1.498248504706226E-025
 -2.550000000000000E-002   -1.330944409669340E-025
 -2.540000000000000E-002   -8.896849751851733E-026
 -2.530000000000000E-002   -1.281557308000681E-026
 -2.520000000000000E-002    9.712538637558800E-026
 -2.510000000000000E-002    2.385044707350200E-025
 -2.500000000000000E-002    4.037891694018066E-025
 -2.490000000000000E-002    5.795370579698498E-025
 -2.480000000000000E-002    7.461774576815320E-025
 -2.470000000000000E-002    8.784348748991001E-025
 -2.460000000000000E-002    9.464820516015092E-025
 -2.450000000000000E-002    9.178623164620823E-025
 -2.440000000000000E-002    7.601815453642150E-025
 -2.430000000000000E-002    4.445484136649620E-025
 -2.420000000000000E-002   -5.026269393093238E-026
 -2.410000000000000E-002   -7.329485068954834E-025
 -2.400000000000000E-002   -1.594155118741044E-024
 -2.390000000000000E-002   -2.600417423043676E-024
 -2.380000000000000E-002   -3.687864560685177E-024
 -2.370000000000000E-002   -4.756318353529197E-024
 -2.360000000000000E-002   -5.664890838007073E-024
 -2.350000000000000E-002   -6.230772569216518E-024
 -2.340000000000000E-002   -6.233496336131275E-024
 -2.330000000000000E-002   -5.427403039244704E-024
 -2.320000000000000E-002   -3.565066067574180E-024
 -2.310000000000000E-002   -4.338010142719465E-025
 -2.300000000000000E-002    4.094122782301043E-024
 -2.290000000000000E-002    9.999534663373682E-024
 -2.280000000000000E-002    1.704816813611428E-023
 -2.270000000000000E-002    2.472594461590785E-023
 -2.260000000000000E-002    3.219170191397035E-023
 -2.250000000000000E-002    3.826471376344659E-023
 -2.240000000000000E-002    4.146565811996672E-023
 -2.230000000000000E-002    4.012778296115059E-023
 -2.220000000000000E-002    3.258882064699424E-023
 -2.210000000000000E-002    1.746329073106697E-023
 -2.200000000000000E-002   -6.020565246610604E-024
 -2.190000000000000E-002   -3.765341019274831E-023
 -2.180000000000000E-002   -7.590010005681687E-023
 -2.170000000000000E-002   -1.176466971736317E-022
 -2.160000000000000E-002   -1.581168331885234E-022
 -2.150000000000000E-002   -1.910318984209671E-022
 -2.140000000000000E-002   -2.090717178190519E-022
 -2.130000000000000E-002   -2.046577435169745E-022
 -2.120000000000000E-002   -1.710312710828528E-022
 -2.110000000000000E-002   -1.035388797450486E-022
 -2.100000000000000E-002   -9.749652578169302E-025
 -2.090000000000000E-002    1.332224878446855E-022
 -2.080000000000000E-002    2.901590596636932E-022
 -2.070000000000000E-002    4.552887482209301E-022
 -2.060000000000000E-002    6.090282860552674E-022
 -2.050000000000000E-002    7.282838757695631E-022
 -2.040000000000000E-002    7.888650212927912E-022
 -2.030000000000000E-002    7.686058274549371E-022
 -2.020000000000000E-002    6.508564713168515E-022
 -2.010000000000000E-002    4.278764176640755E-022
 -2.000000000000000E-002    1.035848095756535E-022
 -1.990000000000000E-002   -3.048675729925977E-022
 -1.980000000000000E-002   -7.671368996969181E-022
 -1.970000000000000E-002   -1.241561780053794E-021
 -1.960000000000000E-002   -1.678823596417129E-021
 -1.950000000000000E-002   -2.027021657266535E-021
 -1.940000000000000E-002   -2.237500767064295E-021
 -1.930000000000000E-002   -2.270560402417378E-021
 -1.920000000000000E-002   -2.100112324770533E-021
 -1.910000000000000E-002   -1.716484278747422E-021
 -1.900000000000000E-002   -1.126884669548829E-021
 -1.890000000000000E-002   -3.535269242568814E-022
 -1.880000000000000E-002    5.700271358903245E-022
 -1.870000000000000E-002    1.603225221498387E-021
 -1.860000000000000E-002    2.702156486132525E-021
 -1.850000000000000E-002    3.820999455208666E-021
 -1.840000000000000E-002    4.910181442919271E-021
 -1.830000000000000E-002    5.910933267611768E-021
 -1.820000000000000E-002    6.747040733789205E-021
 -1.810000000000000E-002    7.315874957461871E-021
 -1.800000000000000E-002    7.481949037785455E-021
 -1.790000000000000E-002    7.076971245684980E-021
 -1.780000000000000E-002    5.910324146346666E-021
 -1.770000000000000E-002    3.792847273711965E-021
 -1.760000000000000E-002    5.746595746767134E-022
 -1.750000000000000E-002   -3.805306409114392E-021
 -1.740000000000000E-002   -9.264055445003446E-021
 -1.730000000000000E-002   -1.552307679575875E-020
 -1.720000000000000E-002   -2.207288927236651E-020
 -1.710000000000000E-002   -2.816673168005013E-020
 -1.700000000000000E-002   -3.285503738882114E-020
 -1.690000000000000E-002   -3.506800444896589E-020
 -1.680000000000000E-002   -3.374650650699759E-020
 -1.670000000000000E-002   -2.801241472186348E-020
 -1.660000000000000E-002   -1.735945846593611E-020
 -1.650000000000000E-002   -1.836739655385532E-021
 -1.640000000000000E-002    1.780906194818354E-020
 -1.630000000000000E-002    4.006787061540774E-020
 -1.620000000000000E-002    6.270684625220798E-020
 -1.610000000000000E-002    8.293553961090810E-020
 -1.600000000000000E-002    9.769584498181939E-020
 -1.590000000000000E-002    1.040550303497123E-019
 -1.580000000000000E-002    9.965750017942072E-020
 -1.570000000000000E-002    8.317171422416099E-020
 -1.560000000000000E-002    5.465725379347723E-020
 -1.550000000000000E-002    1.577688524015065E-020
 -1.540000000000000E-002   -3.020775860319015E-020
 -1.530000000000000E-002   -7.869083198217294E-020
 -1.520000000000000E-002   -1.242229524251417E-019
 -1.510000000000000E-002   -1.612089542952714E-019
 -1.500000000000000E-002   -1.847112963950419E-019
 -1.490000000000000E-002   -1.912346802721191E-019
 -1.480000000000000E-002   -1.793531917335243E-019
 -1.470000000000000E-002   -1.500500743105192E-019
 -1.460000000000000E-002   -1.066760715436894E-019
 -1.450000000000000E-002   -5.449129243534798E-020
 -1.440000000000000E-002    1.694848141140277E-022
 -1.430000000000000E-002    5.098946697301946E-020
 -1.420000000000000E-002    9.283457796639348E-020
 -1.410000000000000E-002    1.227644147399012E-019
 -1.400000000000000E-002    1.406625137466771E-019
 -1.390000000000000E-002    1.493046329191555E-019
 -1.380000000000000E-002    1.537745612954179E-019
 -1.370000000000000E-002    1.602605680444250E-019
 -1.360000000000000E-002    1.744039659349566E-019
 -1.350000000000000E-002    1.994970032297556E-019
 -1.340000000000000E-002    2.349116158138760E-019
 -1.330000000000000E-002    2.751596339172205E-019
 -1.320000000000000E-002    3.099219094799928E-019
 -1.310000000000000E-002    3.252374275132974E-019
 -1.300000000000000E-002    3.058287309668128E-019
 -1.290000000000000E-002    2.382898776082128E-019
 -1.280000000000000E-002    1.146236579677892E-019
 -1.270000000000000E-002   -6.456375185567597E-020
 -1.260000000000000E-002   -2.879662856519632E-019
 -1.250000000000000E-002   -5.332571401860397E-019
 -1.240000000000000E-002   -7.689803763782389E-019
 -1.230000000000000E-002   -9.587160831390527E-019
 -1.220000000000000E-002   -1.067117898438114E-018
 -1.210000000000000E-002   -1.066947992485229E-018
 -1.200000000000000E-002   -9.458552534018600E-019
 -1.190000000000000E-002   -7.114397402038265E-019
 -1.180000000000000E-002   -3.932102596337374E-019
 -1.170000000000000E-002   -4.039714706691458E-020
 -1.160000000000000E-002    2.847753079737960E-019
 -1.150000000000000E-002    5.179067174275998E-019
 -1.140000000000000E-002    6.059548514036114E-019
 -1.130000000000000E-002    5.212808629835102E-019
 -1.120000000000000E-002    2.734459038621470E-019
 -1.110000000000000E-002   -8.411778586865761E-020
 -1.100000000000000E-002   -4.550197012261935E-019
 -1.090000000000000E-002   -7.098799779525581E-019
 -1.080000000000000E-002   -7.053779150871636E-019
 -1.070000000000000E-002   -3.106705587606183E-019
 -1.060000000000000E-002    5.622582748926742E-019
 -1.050000000000000E-002    1.929160596410604E-018
 -1.040000000000000E-002    3.710607553804333E-018
 -1.030000000000000E-002    5.721060525913857E-018
 -1.020000000000000E-002    7.674265622347678E-018
 -1.010000000000000E-002    9.207196827118878E-018
 -1.000000000000000E-002    9.921944635691478E-018
 -9.899999999999999E-003    9.441764226204295E-018
 -9.800000000000000E-003    7.474552693120549E-018
 -9.699999999999999E-003    3.874778878868166E-018
 -9.599999999999999E-003   -1.306136999219502E-018
 -9.500000000000000E-003   -7.790381711963779E-018
 -9.399999999999999E-003   -1.507249935788714E-017
 -9.299999999999999E-003   -2.244986602114661E-017
 -9.200000000000000E-003   -2.908387920290987E-017
 -9.099999999999999E-003   -3.408598718295927E-017
 -8.999999999999999E-003   -3.661836601055616E-017
 -8.900000000000000E-003   -3.599621747631866E-017
 -8.799999999999999E-003   -3.177775569382771E-017
 -8.699999999999999E-003   -2.382938085834664E-017
 -8.600000000000000E-003   -1.235709454421335E-017
 -8.499999999999999E-003    2.099429847119783E-018
 -8.399999999999999E-003    1.870775485636292E-017
 -8.300000000000000E-003    3.641053311477208E-017
 -8.199999999999999E-003    5.400806830600155E-017
 -8.100000000000000E-003    7.024178290268942E-017
 -8.000000000000000E-003    8.386610403334769E-017
 -7.899999999999999E-003    9.370032395206999E-017
 -7.800000000000000E-003    9.865870035683509E-017
 -7.699999999999999E-003    9.776420084485148E-017
 -7.599999999999999E-003    9.015825632797751E-017
 -7.499999999999999E-003    7.512287151185929E-017
 -7.399999999999999E-003    5.213219395238963E-017
 -7.299999999999999E-003    2.094609070985985E-017
 -7.199999999999999E-003   -1.825047720887940E-017
 -7.100000000000000E-003   -6.467097694459271E-017
 -6.999999999999999E-003   -1.167366740012324E-016
 -6.899999999999999E-003   -1.719075736087039E-016
 -6.800000000000000E-003   -2.265799231180403E-016
 -6.699999999999999E-003   -2.760969633196318E-016
 -6.599999999999999E-003   -3.149138073315250E-016
 -6.499999999999999E-003   -3.369415383267622E-016
 -6.399999999999999E-003   -3.360720629744114E-016
 -6.299999999999999E-003   -3.068569224124045E-016
 -6.199999999999999E-003   -2.452830907673616E-016
 -6.100000000000000E-003   -1.495620683307203E-016
 -5.999999999999999E-003   -2.083138758565006E-017
 -5.899999999999999E-003    1.363382822300095E-016
 -5.800000000000000E-003    3.137274855538753E-016
 -5.699999999999999E-003    4.996165807606743E-016
 -5.599999999999999E-003    6.793341365004097E-016
 -5.499999999999999E-003    8.361946091720011E-016
 -5.399999999999999E-003    9.527671937160632E-016
 -5.299999999999999E-003    1.012375522549056E-015
 -5.199999999999999E-003    1.000693819251249E-015
 -5.099999999999999E-003    9.072912281093623E-016
 -4.999999999999999E-003    7.269742466768099E-016
 -4.899999999999999E-003    4.608001784155214E-016
 -4.799999999999999E-003    1.166647564546009E-016
 -4.699999999999999E-003   -2.905908169745924E-016
 -4.599999999999999E-003   -7.395645090449879E-016
 -4.499999999999999E-003   -1.203143303443584E-015
 -4.399999999999999E-003   -1.649766604234974E-015
 -4.299999999999999E-003   -2.045034803040028E-015
 -4.199999999999999E-003   -2.353590143228323E-015
 -4.099999999999999E-003   -2.541209179191270E-015
 -3.999999999999999E-003   -2.577044457238030E-015
 -3.899999999999999E-003   -2.435960550399043E-015
 -3.799999999999999E-003   -2.100898626159342E-015
 -3.699999999999999E-003   -1.565175855470096E-015
 -3.599999999999999E-003   -8.345928272750740E-016
 -3.499999999999999E-003    7.083099755453694E-017
 -3.399999999999999E-003    1.115713646898405E-015
 -3.299999999999999E-003    2.249013988669073E-015
 -3.199999999999999E-003    3.404835322847452E-015
 -3.099999999999999E-003    4.504550963953825E-015
 -2.999999999999999E-003    5.460384681369412E-015
 -2.899999999999999E-003    6.180455963004790E-015
 -2.799999999999999E-003    6.575135629667710E-015
 -2.699999999999999E-003    6.564379893173099E-015
 -2.599999999999999E-003    6.085531263770868E-015
 -2.499999999999999E-003    5.100939307269628E-015
 -2.399999999999999E-003    3.604677122185525E-015
 -2.299999999999999E-003    1.627606380815222E-015
 -2.199999999999999E-003   -7.598582233635199E-016
 -2.099999999999999E-003   -3.447783884345934E-015
 -1.999999999999999E-003   -6.289827608599444E-015
 -1.899999999999999E-003   -9.109424334162008E-015
 -1.799999999999999E-003   -1.170878128022249E-014
 -1.699999999999999E-003   -1.388019289390201E-014
 -1.599999999999999E-003   -1.541897757604992E-014
 -1.499999999999999E-003   -1.613724905684370E-014
 -1.399999999999999E-003   -1.587771918468285E-014
 -1.299999999999999E-003   -1.452673824991308E-014
 -1.199999999999999E-003   -1.202591252640212E-014
 -1.099999999999999E-003   -8.381716960713633E-015
 -9.999999999999989E-004   -3.672619427268776E-015
 -8.999999999999990E-004    1.946717448745005E-015
 -7.999999999999990E-004    8.244594844754693E-015
 -6.999999999999989E-004    1.491523518740589E-014
 -5.999999999999990E-004    2.158608339800179E-014
 -4.999999999999989E-004    2.782992937641732E-014
 -3.999999999999989E-004    3.318229918856907E-014
 -2.999999999999989E-004    3.716430756025956E-014
 -1.999999999999989E-004    3.931081148124894E-014
 -9.999999999999892E-005    3.920315634657573E-014
  1.084202172485504E-018    3.650508006332033E-014
  1.000000000000011E-004    3.099973123196101E-014
  2.000000000000011E-004    2.262492474821460E-014
  3.000000000000011E-004    1.150335827027187E-014
  4.000000000000011E-004   -2.035803515489914E-015
  5.000000000000011E-004   -1.744741798221632E-014
  6.000000000000011E-004   -3.397576349749878E-014
  7.000000000000011E-004   -5.067682186994563E-014
  8.000000000000011E-004   -6.645802182287826E-014
  9.000000000000012E-004   -8.013448500156977E-014
  1.000000000000001E-003   -9.049923065689806E-014
  1.100000000000001E-003   -9.640343982637056E-014
  1.200000000000001E-003   -9.684162299508422E-014
  1.300000000000001E-003   -9.103594622210891E-014
  1.400000000000001E-003   -7.851383747091733E-014
  1.500000000000001E-003   -5.917336565557941E-014
  1.600000000000001E-003   -3.333169414210843E-014
  1.700000000000001E-003   -1.753041444130337E-015
  1.800000000000001E-003    3.434627803971152E-014
  1.900000000000001E-003    7.331696118459885E-014
  2.000000000000001E-003    1.131205000576798E-013
  2.100000000000001E-003    1.513972702470252E-013
  2.200000000000001E-003    1.855585718009257E-013
  2.300000000000001E-003    2.129015996825350E-013
  2.400000000000001E-003    2.307464077120727E-013
  2.500000000000001E-003    2.365927307205366E-013
  2.600000000000001E-003    2.282936265294173E-013
  2.700000000000001E-003    2.042406751577833E-013
  2.800000000000001E-003    1.635527433480336E-013
  2.900000000000001E-003    1.062574499884074E-013
  3.000000000000001E-003    3.345053499209718E-014
  3.100000000000001E-003   -5.258347490446261E-014
  3.200000000000001E-003   -1.483091397384917E-013
  3.300000000000001E-003   -2.489547282020283E-013
  3.400000000000001E-003   -3.486207512574792E-013
  3.500000000000001E-003   -4.404944441359544E-013
  3.600000000000001E-003   -5.171748954634128E-013
  3.700000000000001E-003   -5.711033118948198E-013
  3.800000000000001E-003   -5.950838261949104E-013
  3.900000000000001E-003   -5.828664337594938E-013
  4.000000000000001E-003   -5.297553050205660E-013
  4.100000000000001E-003   -4.331960631198399E-013
  4.200000000000001E-003   -2.932913069102706E-013
  4.300000000000001E-003   -1.131925206232200E-013
  4.400000000000001E-003    1.006800837895684E-013
  4.500000000000001E-003    3.386278689617799E-013
  4.600000000000002E-003    5.879031591512495E-013
  4.700000000000001E-003    8.331866109099383E-013
  4.800000000000001E-003    1.057308111600065E-012
  4.900000000000002E-003    1.242185535613782E-012
  5.000000000000001E-003    1.369940826781604E-012
  5.100000000000001E-003    1.424135971333603E-012
  5.200000000000001E-003    1.391061720651938E-012
  5.300000000000002E-003    1.261001714313117E-012
  5.400000000000001E-003    1.029390842917838E-012
  5.500000000000001E-003    6.977852027274611E-013
  5.600000000000002E-003    2.745639560147226E-013
  5.700000000000001E-003   -2.247116951043589E-013
  5.800000000000001E-003   -7.773476761209908E-013
  5.900000000000002E-003   -1.354024090127796E-012
  6.000000000000001E-003   -1.919797655031266E-012
  6.100000000000001E-003   -2.435606003638207E-012
  6.200000000000002E-003   -2.860262002622778E-012
  6.300000000000002E-003   -3.152884308737159E-012
  6.400000000000001E-003   -3.275676341835752E-012
  6.500000000000001E-003   -3.196925354617379E-012
  6.600000000000002E-003   -2.894048959345639E-012
  6.700000000000001E-003   -2.356484667487042E-012
  6.800000000000001E-003   -1.588185106246762E-012
  6.900000000000002E-003   -6.094739168861572E-013
  7.000000000000001E-003    5.419889619316541E-013
  7.100000000000001E-003    1.811342345234503E-012
  7.200000000000002E-003    3.127931223283379E-012
  7.300000000000002E-003    4.408077267077352E-012
  7.400000000000001E-003    5.559203782739888E-012
  7.500000000000001E-003    6.485208397748547E-012
  7.600000000000002E-003    7.092844360618471E-012
  7.700000000000001E-003    7.298764866360947E-012
  7.800000000000001E-003    7.036783546142552E-012
  7.900000000000001E-003    6.264829138145775E-012
  8.000000000000002E-003    4.971028376306488E-012
  8.100000000000001E-003    3.178354765154322E-012
  8.200000000000001E-003    9.473265753537960E-013
  8.300000000000002E-003   -1.623670535334543E-012
  8.400000000000001E-003   -4.400732987734992E-012
  8.500000000000002E-003   -7.219581925078408E-012
  8.600000000000002E-003   -9.893435116578296E-012
  8.700000000000001E-003   -1.222334236773967E-011
  8.800000000000002E-003   -1.401051929112555E-011
  8.900000000000002E-003   -1.507003038717165E-011
  9.000000000000001E-003   -1.524502173224148E-011
  9.100000000000002E-003   -1.442058565445615E-011
  9.200000000000002E-003   -1.253629737877445E-011
  9.300000000000001E-003   -9.596417439103231E-012
  9.400000000000002E-003   -5.676861086407647E-012
  9.500000000000001E-003   -9.281120009515458E-013
  9.600000000000001E-003    4.426561848300678E-012
  9.700000000000002E-003    1.009795338099473E-011
  9.800000000000001E-003    1.574295817525724E-011
  9.900000000000001E-003    2.098159585395050E-011
  1.000000000000000E-002    2.541841940852321E-011
  1.010000000000000E-002    2.866740259878351E-011
  1.020000000000000E-002    3.037902543766057E-011
  1.030000000000000E-002    3.026798000182946E-011
  1.040000000000000E-002    2.813965869466834E-011
  1.050000000000000E-002    2.391348988035269E-011
  1.060000000000000E-002    1.764111900130359E-011
  1.070000000000000E-002    9.517564681487442E-012
  1.080000000000000E-002   -1.162518466242655E-013
  1.090000000000000E-002   -1.078075970022898E-011
  1.100000000000000E-002   -2.187540080498400E-011
  1.110000000000000E-002   -3.270662350650333E-011
  1.120000000000000E-002   -4.252532794063186E-011
  1.130000000000000E-002   -5.057218983239408E-011
  1.140000000000000E-002   -5.612843670686238E-011
  1.150000000000000E-002   -5.856905829037984E-011
  1.160000000000000E-002   -5.741489148767565E-011
  1.170000000000000E-002   -5.237980582704693E-011
  1.180000000000000E-002   -4.340914153402955E-011
  1.190000000000000E-002   -3.070587767544694E-011
  1.200000000000000E-002   -1.474149103366835E-011
  1.210000000000000E-002    3.750567779906426E-012
  1.220000000000000E-002    2.379996671123079E-011
  1.230000000000000E-002    4.424297546665872E-011
  1.240000000000000E-002    6.378287409673136E-011
  1.250000000000000E-002    8.106466878527922E-011
  1.260000000000000E-002    9.476003651265857E-011
  1.270000000000000E-002    1.036576368309265E-010
  1.280000000000000E-002    1.067530666550049E-010
  1.290000000000000E-002    1.033323954235488E-010
  1.300000000000000E-002    9.304318000264674E-011
  1.310000000000000E-002    7.594715804640001E-011
  1.320000000000000E-002    5.254992303065321E-011
  1.330000000000000E-002    2.380361141843452E-011
  1.340000000000000E-002   -8.919392073587636E-012
  1.350000000000000E-002   -4.388232184049530E-011
  1.360000000000000E-002   -7.906791609977412E-011
  1.370000000000000E-002   -1.122869982681252E-010
  1.380000000000000E-002   -1.413063265216711E-010
  1.390000000000000E-002   -1.639888045585548E-010
  1.400000000000000E-002   -1.784377531270530E-010
  1.410000000000000E-002   -1.831359783213618E-010
  1.420000000000000E-002   -1.770701021635296E-010
  1.430000000000000E-002   -1.598308988043296E-010
  1.440000000000000E-002   -1.316811608195590E-010
  1.450000000000000E-002   -9.358430547742010E-011
  1.460000000000000E-002   -4.718926114359694E-011
  1.470000000000000E-002    5.230782232074190E-012
  1.480000000000000E-002    6.088426320312769E-011
  1.490000000000000E-002    1.166081265668849E-010
  1.500000000000000E-002    1.690479254175709E-010
  1.510000000000000E-002    2.148615738031964E-010
  1.520000000000000E-002    2.509339210479851E-010
  1.530000000000000E-002    2.745883802548237E-010
  1.540000000000000E-002    2.837810323928214E-010
  1.550000000000000E-002    2.772626504157280E-010
  1.560000000000000E-002    2.546960631951518E-010
  1.570000000000000E-002    2.167179200136695E-010
  1.580000000000000E-002    1.649382064281962E-010
  1.590000000000000E-002    1.018740729630569E-010
  1.600000000000000E-002    3.081946867997923E-011
  1.610000000000000E-002   -4.434341402258569E-011
  1.620000000000000E-002   -1.193799957174746E-010
  1.630000000000000E-002   -1.899726106366244E-010
  1.640000000000000E-002   -2.520048139537946E-010
  1.650000000000000E-002   -3.018420136514609E-010
  1.660000000000000E-002   -3.365874504396558E-010
  1.670000000000000E-002   -3.542945140150421E-010
  1.680000000000000E-002   -3.541178044731841E-010
  1.690000000000000E-002   -3.363894737736093E-010
  1.700000000000000E-002   -3.026116284267827E-010
  1.710000000000000E-002   -2.553615694458393E-010
  1.720000000000000E-002   -1.981124739607040E-010
  1.730000000000000E-002   -1.349787009180609E-010
  1.740000000000000E-002   -7.040090320325018E-011
  1.750000000000000E-002   -8.790980837250748E-012
  1.760000000000000E-002    4.583827344620521E-011
  1.770000000000000E-002    9.023201282234577E-011
  1.780000000000000E-002    1.222120067561053E-010
  1.790000000000000E-002    1.409284786451871E-010
  1.800000000000000E-002    1.470206072606520E-010
  1.810000000000000E-002    1.426664107887997E-010
  1.820000000000000E-002    1.315089200633857E-010
  1.830000000000000E-002    1.184539317714144E-010
  1.840000000000000E-002    1.093427095999344E-010
  1.850000000000000E-002    1.105130057920267E-010
  1.860000000000000E-002    1.282695254571247E-010
  1.870000000000000E-002    1.682943839787898E-010