 -4.000000000000000E-002    0.000000000000000E+000
 -3.990000000000000E-002    0.000000000000000E+000
 -3.980000000000000E-002   -3.466459974579626E-013
 -3.970000000000000E-002   -1.740753603271760E-012
 -3.960000000000000E-002   -5.095795255845741E-012
 -3.950000000000000E-002   -1.131554427471836E-011
 -3.940000000000000E-002   -2.105025661139697E-011
 -3.930000000000000E-002   -3.447548770925609E-011
 -3.920000000000000E-002   -5.112372152739592E-011
 -3.910000000000000E-002   -6.978931076106241E-011
 -3.900000000000000E-002   -8.852111024592303E-011
 -3.890000000000000E-002   -1.047119809286487E-010
 -3.880000000000000E-002   -1.152859883858133E-010
 -3.870000000000000E-002   -1.169725969656204E-010
 -3.860000000000000E-002   -1.066417217762129E-010
 -3.850000000000000E-002   -8.165815398391921E-011
 -3.840000000000000E-002   -4.020187399224529E-011
 -3.830000000000000E-002    1.850234543972926E-011
 -3.820000000000000E-002    9.409552529600590E-011
 -3.810000000000000E-002    1.851654167537418E-010
 -3.800000000000000E-002    2.895000031141040E-010
 -3.790000000000000E-002    4.044830944944211E-010
 -3.780000000000000E-002    5.275686826909260E-010
 -3.770000000000000E-002    6.567473484283238E-010
 -3.760000000000000E-002    7.909061649016069E-010
 -3.750000000000000E-002    9.299873983100999E-010
 -3.740000000000000E-002    1.074872336065617E-009
 -3.730000000000000E-002    1.226950104765445E-009
 -3.720000000000000E-002    1.387377914904589E-009
 -3.710000000000000E-002    1.556086879490871E-009
 -3.700000000000000E-002    1.730637228740477E-009
 -3.690000000000000E-002    1.905067179160550E-009
 -3.680000000000000E-002    2.068908888936909E-009
 -3.670000000000000E-002    2.206557072882467E-009
 -3.660000000000000E-002    2.297170294391330E-009
 -3.650000000000000E-002    2.315253213710006E-009
 -3.640000000000000E-002    2.232020789317482E-009
 -3.630000000000000E-002    2.017573652181640E-009
 -3.620000000000000E-002    1.643822899203625E-009
 -3.610000000000000E-002    1.088006419319223E-009
 -3.600000000000000E-002    3.365363578567630E-010
 -3.590000000000000E-002   -6.111706065406706E-010
 -3.580000000000000E-002   -1.739294770100458E-009
 -3.570000000000000E-002   -3.013088439404636E-009
 -3.560000000000000E-002   -4.377644013953463E-009
 -3.550000000000000E-002   -5.758302730781467E-009
 -3.540000000000000E-002   -7.062923147953156E-009
 -3.530000000000000E-002   -8.186052372881866E-009
 -3.520000000000000E-002   -9.014872961278249E-009
 -3.510000000000000E-002   -9.436566519830199E-009
 -3.500000000000000E-002   -9.346619449196268E-009
 -3.490000000000000E-002   -8.657431509627829E-009
 -3.480000000000000E-002   -7.306587245145063E-009
 -3.470000000000000E-002   -5.264137358159691E-009
 -3.460000000000000E-002   -2.538382940036744E-009
 -3.450000000000000E-002    8.202420879461784E-010
 -3.440000000000000E-002    4.717379358762293E-009
 -3.430000000000000E-002    9.015101171762073E-009
 -3.420000000000000E-002    1.353435271867763E-008
 -3.410000000000000E-002    1.805933343529791E-008
 -3.400000000000000E-002    2.234373900776187E-008
 -3.390000000000000E-002    2.611881828096060E-008
 -3.380000000000000E-002    2.910332896821358E-008
 -3.370000000000000E-002    3.101558414560208E-008
 -3.360000000000000E-002    3.158777420661246E-008
 -3.350000000000000E-002    3.058276297250560E-008
 -3.340000000000000E-002    2.781330691025608E-008
 -3.330000000000000E-002    2.316336988085343E-008
 -3.320000000000000E-002    1.661075063319250E-008
 -3.310000000000000E-002    8.249858821166454E-009
 -3.300000000000000E-002   -1.687112291839408E-009
 -3.290000000000000E-002   -1.281252932220751E-008
 -3.280000000000000E-002   -2.457137634890648E-008
 -3.270000000000000E-002   -3.623705392997506E-008
 -3.260000000000000E-002   -4.691654987891323E-008
 -3.250000000000000E-002   -5.556599631266975E-008
 -3.240000000000000E-002   -6.101672647142531E-008
 -3.230000000000000E-002   -6.201102548789386E-008
 -3.220000000000000E-002   -5.724569154672786E-008
 -3.210000000000000E-002   -4.542066559652161E-008
 -3.200000000000000E-002   -2.528961099445132E-008
 -3.190000000000000E-002    4.291491366529772E-009
 -3.180000000000000E-002    4.432105933267142E-008
 -3.170000000000000E-002    9.561707041490375E-008
 -3.160000000000000E-002    1.587934432494741E-007
 -3.150000000000000E-002    2.342486344262613E-007
 -3.140000000000000E-002    3.221673666148156E-007
 -3.130000000000000E-002    4.225346841719641E-007
 -3.120000000000000E-002    5.351613383251896E-007
 -3.110000000000000E-002    6.597180298297283E-007
 -3.100000000000000E-002    7.957766863161305E-007
 -3.090000000000000E-002    9.428551059632670E-007
 -3.080000000000000E-002    1.100464072948931E-006
 -3.070000000000000E-002    1.268152491614700E-006
 -3.060000000000000E-002    1.445549984107456E-006
 -3.050000000000000E-002    1.632403992311856E-006
 -3.040000000000000E-002    1.828610265466966E-006
 -3.030000000000000E-002    2.034234558486051E-006
 -3.020000000000000E-002    2.249526078610574E-006
 -3.010000000000000E-002    2.474919496814767E-006
 -3.000000000000000E-002    2.711027578064160E-006
 -2.990000000000000E-002    2.958622914732202E-006
 -2.980000000000000E-002    3.218611968363986E-006
 -2.970000000000000E-002    3.491999853170373E-006
 -2.960000000000000E-002    3.779852353222992E-006
 -2.950000000000000E-002    4.083255882939383E-006
 -2.940000000000000E-002    4.403280612989101E-006
 -2.930000000000000E-002    4.740948006327945E-006
 -2.920000000000000E-002    5.097210294238931E-006
 -2.910000000000000E-002    5.472940493851703E-006
 -2.900000000000000E-002    5.868938476465778E-006
 -2.890000000000000E-002    6.285947701473095E-006
 -2.880000000000000E-002    6.724687367347335E-006
 -2.870000000000000E-002    7.185891971115271E-006
 -2.860000000000000E-002    7.670357600340118E-006
 -2.850000000000000E-002    8.178987131685207E-006
 -2.840000000000000E-002    8.712830824593516E-006
 -2.830000000000000E-002    9.273117764693251E-006
 -2.820000000000000E-002    9.861277380461781E-006
 -2.810000000000000E-002    1.047894171356162E-005
 -2.800000000000000E-002    1.112793962281967E-005
 -2.790000000000000E-002    1.181027267270638E-005
 -2.780000000000000E-002    1.252808746708289E-005
 -2.770000000000000E-002    1.328364066531896E-005
 -2.760000000000000E-002    1.407926604318196E-005
 -2.750000000000000E-002    1.491734764937547E-005
 -2.740000000000000E-002    1.580029863328741E-005
 -2.730000000000000E-002    1.673055841111279E-005
 -2.720000000000000E-002    1.771059890816347E-005
 -2.710000000000000E-002    1.874294171379355E-005
 -2.700000000000000E-002    1.983018838574954E-005
 -2.690000000000000E-002    2.097505827864558E-005
 -2.680000000000000E-002    2.218042263843558E-005
 -2.670000000000000E-002    2.344934096014666E-005
 -2.660000000000000E-002    2.478509189322558E-005
 -2.650000000000000E-002    2.619119240358118E-005
 -2.640000000000000E-002    2.767140669532637E-005
 -2.630000000000000E-002    2.922974701583988E-005
 -2.620000000000000E-002    3.087046009716916E-005
 -2.610000000000000E-002    3.259800794027575E-005
 -2.600000000000000E-002    3.441704068080503E-005
 -2.590000000000000E-002    3.633237558293650E-005
 -2.580000000000000E-002    3.834897541982564E-005
 -2.570000000000000E-002    4.047193826345745E-005
 -2.560000000000000E-002    4.270647761545308E-005
 -2.550000000000000E-002    4.505794890462286E-005
 -2.540000000000000E-002    4.753185261882835E-005
 -2.530000000000000E-002    5.013387115693130E-005
 -2.520000000000000E-002    5.286990316854236E-005
 -2.510000000000000E-002    5.574611083921238E-005
 -2.500000000000000E-002    5.876895699802157E-005
 -2.490000000000000E-002    6.194525562616335E-005
 -2.480000000000000E-002    6.528221475590222E-005
 -2.470000000000000E-002    6.878744775290705E-005
 -2.460000000000000E-002    7.246900082703451E-005
 -2.450000000000000E-002    7.633535083852664E-005
 -2.440000000000000E-002    8.039539561834882E-005
 -2.430000000000000E-002    8.465843523462693E-005
 -2.420000000000000E-002    8.913415191050267E-005
 -2.410000000000000E-002    9.383257252280161E-005
 -2.400000000000000E-002    9.876403408858191E-005
 -2.390000000000000E-002    1.039391861509246E-004
 -2.380000000000000E-002    1.093689740168549E-004
 -2.370000000000000E-002    1.150646368716638E-004
 -2.360000000000000E-002    1.210377250026083E-004
 -2.350000000000000E-002    1.273001399817420E-004
 -2.340000000000000E-002    1.338641624230537E-004
 -2.330000000000000E-002    1.407425048282052E-004
 -2.320000000000000E-002    1.479483275279448E-004
 -2.310000000000000E-002    1.554953023966018E-004
 -2.300000000000000E-002    1.633976034906625E-004
 -2.290000000000000E-002    1.716699285309462E-004
 -2.280000000000000E-002    1.803275426511399E-004
 -2.270000000000000E-002    1.893862069549190E-004
 -2.260000000000000E-002    1.988621989333558E-004
 -2.250000000000000E-002    2.087723158948654E-004
 -2.240000000000000E-002    2.191338347484802E-004
 -2.230000000000000E-002    2.299645410062401E-004
 -2.220000000000000E-002    2.412827349993753E-004
 -2.210000000000000E-002    2.531072893841339E-004
 -2.200000000000000E-002    2.654576776786934E-004
 -2.190000000000000E-002    2.783539821226522E-004
 -2.180000000000000E-002    2.918170195604232E-004
 -2.170000000000000E-002    3.058683386034551E-004
 -2.160000000000000E-002    3.205302184902005E-004
 -2.150000000000000E-002    3.358257771268287E-004
 -2.140000000000000E-002    3.517788767332516E-004
 -2.130000000000000E-002    3.684141151064433E-004
 -2.120000000000000E-002    3.857568159193042E-004
 -2.110000000000000E-002    4.038329189194321E-004
 -2.100000000000000E-002    4.226689697541986E-004
 -2.090000000000000E-002    4.422920077421470E-004
 -2.080000000000000E-002    4.627295779976517E-004
 -2.070000000000000E-002    4.840097183200558E-004
 -2.060000000000000E-002    5.061608934687663E-004
 -2.050000000000000E-002    5.292120575082960E-004
 -2.040000000000000E-002    5.531927230776208E-004
 -2.030000000000000E-002    5.781329163782219E-004
 -2.020000000000000E-002    6.040633623457393E-004
 -2.010000000000000E-002    6.310154129655925E-004
 -2.000000000000000E-002    6.590212456168575E-004
 -1.990000000000000E-002    6.881137207233007E-004
 -1.980000000000000E-002    7.183266415995312E-004
 -1.970000000000000E-002    7.496944894700516E-004
 -1.960000000000000E-002    7.822526433584260E-004
 -1.950000000000000E-002    8.160373214700266E-004
 -1.940000000000000E-002    8.510855248778444E-004
 -1.930000000000000E-002    8.874350634189785E-004
 -1.920000000000000E-002    9.251244931063724E-004
 -1.910000000000000E-002    9.641931271235812E-004
 -1.900000000000000E-002    1.004680977505468E-003
 -1.890000000000000E-002    1.046628746664783E-003
 -1.880000000000000E-002    1.090077779849189E-003
 -1.870000000000000E-002    1.135069986395426E-003
 -1.860000000000000E-002    1.181647848006911E-003
 -1.850000000000000E-002    1.229854264995779E-003
 -1.840000000000000E-002    1.279732517350856E-003
 -1.830000000000000E-002    1.331326234748939E-003
 -1.820000000000000E-002    1.384679233307624E-003
 -1.810000000000000E-002    1.439835469877654E-003
 -1.800000000000000E-002    1.496839112193859E-003
 -1.790000000000000E-002    1.555734318500412E-003
 -1.780000000000000E-002    1.616565417144379E-003
 -1.770000000000000E-002    1.679376658645710E-003
 -1.760000000000000E-002    1.744212336349979E-003
 -1.750000000000000E-002    1.811116839332141E-003
 -1.740000000000000E-002    1.880134457444765E-003
 -1.730000000000000E-002    1.951309801090836E-003
 -1.720000000000000E-002    2.024686979677892E-003
 -1.710000000000000E-002    2.100310337158981E-003
 -1.700000000000000E-002    2.178223832072901E-003
 -1.690000000000000E-002    2.258471450877231E-003
 -1.680000000000000E-002    2.341096478792186E-003
 -1.670000000000000E-002    2.426141880336572E-003
 -1.660000000000000E-002    2.513650306487519E-003
 -1.650000000000000E-002    2.603663181756183E-003
 -1.640000000000000E-002    2.696221649989296E-003
 -1.630000000000000E-002    2.791365665548489E-003
 -1.620000000000000E-002    2.889134386577780E-003
 -1.610000000000000E-002    2.989565790909627E-003
 -1.600000000000000E-002    3.092696611640360E-003
 -1.590000000000000E-002    3.198562150878556E-003
 -1.580000000000000E-002    3.307196505638344E-003
 -1.570000000000000E-002    3.418632012950160E-003
 -1.560000000000000E-002    3.532899545922023E-003
 -1.550000000000000E-002    3.650027616566225E-003
 -1.540000000000000E-002    3.770042818022080E-003
 -1.530000000000000E-002    3.892969844055023E-003
 -1.520000000000000E-002    4.018830697428121E-003
 -1.510000000000000E-002    4.147645061439668E-003
 -1.500000000000000E-002    4.279429989796052E-003
 -1.490000000000000E-002    4.414199354874986E-003
 -1.480000000000000E-002    4.551964446730546E-003
 -1.470000000000000E-002    4.692733563489790E-003
 -1.460000000000000E-002    4.836511302563800E-003
 -1.450000000000000E-002    4.983299481386610E-003
 -1.440000000000000E-002    5.133095665415768E-003
 -1.430000000000000E-002    5.285894633371423E-003
 -1.420000000000000E-002    5.441687136536857E-003
 -1.410000000000000E-002    5.600459191084596E-003
 -1.400000000000000E-002    5.762193664500957E-003
 -1.390000000000000E-002    5.926868560349643E-003
 -1.380000000000000E-002    6.094456975081800E-003
 -1.370000000000000E-002    6.264927824124997E-003
 -1.360000000000000E-002    6.438244706597984E-003
 -1.350000000000000E-002    6.614365912451827E-003
 -1.340000000000000E-002    6.793243997568441E-003
 -1.330000000000000E-002    6.974826434570943E-003
 -1.320000000000000E-002    7.159053749949082E-003
 -1.310000000000000E-002    7.345860635489910E-003
 -1.300000000000000E-002    7.535175053186778E-003
 -1.290000000000000E-002    7.726918474657264E-003
 -1.280000000000000E-002    7.921005139646851E-003
 -1.270000000000000E-002    8.117342254543615E-003
 -1.260000000000000E-002    8.315828856161483E-003
 -1.250000000000000E-002    8.516357802296516E-003
 -1.240000000000000E-002    8.718812383023019E-003
 -1.230000000000000E-002    8.923069153543602E-003
 -1.220000000000000E-002    9.128996066233493E-003
 -1.210000000000000E-002    9.336452284148795E-003
 -1.200000000000000E-002    9.545289861031515E-003
 -1.190000000000000E-002    9.755351371986749E-003
 -1.180000000000000E-002    9.966470260947883E-003
 -1.170000000000000E-002    1.017847044724753E-002
 -1.160000000000000E-002    1.039116737897410E-002
 -1.150000000000000E-002    1.060436693896443E-002
 -1.140000000000000E-002    1.081786355175490E-002
 -1.130000000000000E-002    1.103144370095771E-002
 -1.120000000000000E-002    1.124488180705785E-002
 -1.110000000000000E-002    1.145794245823593E-002
 -1.100000000000000E-002    1.167037986341820E-002
 -1.090000000000000E-002    1.188193687125630E-002
 -1.080000000000000E-002    1.209234610086674E-002
 -1.070000000000000E-002    1.230132822714014E-002
 -1.060000000000000E-002    1.250859427384699E-002
 -1.050000000000000E-002    1.271384167936132E-002
 -1.040000000000000E-002    1.291675901487876E-002
 -1.030000000000000E-002    1.311702208447747E-002
 -1.020000000000000E-002    1.331429498962800E-002
 -1.010000000000000E-002    1.350823023669120E-002
 -1.000000000000000E-002    1.369846843317813E-002
 -9.899999999999999E-003    1.388463747467364E-002
 -9.800000000000000E-003    1.406635369622546E-002
 -9.699999999999999E-003    1.424322152873785E-002
 -9.599999999999999E-003    1.441483234546515E-002
 -9.500000000000000E-003    1.458076581820074E-002
 -9.399999999999999E-003    1.474058920218435E-002
 -9.299999999999999E-003    1.489385790031369E-002
 -9.200000000000000E-003    1.504011537778429E-002
 -9.099999999999999E-003    1.517889457956986E-002
 -8.999999999999999E-003    1.530971429281601E-002
 -8.900000000000000E-003    1.543208357838158E-002
 -8.799999999999999E-003    1.554549834900850E-002
 -8.699999999999999E-003    1.564944448396823E-002
 -8.600000000000000E-003    1.574339529088060E-002
 -8.499999999999999E-003    1.582681428606350E-002
 -8.399999999999999E-003    1.589915255477676E-002
 -8.300000000000000E-003    1.595985224417482E-002
 -8.199999999999999E-003    1.600834312337594E-002
 -8.100000000000000E-003    1.604404533577064E-002
 -8.000000000000000E-003    1.606636893662214E-002
 -7.899999999999999E-003    1.607471502592070E-002
 -7.800000000000000E-003    1.606847427766293E-002
 -7.699999999999999E-003    1.604703004592428E-002
 -7.599999999999999E-003    1.600975533099868E-002
 -7.499999999999999E-003    1.595601550394963E-002
 -7.399999999999999E-003    1.588517004164835E-002
 -7.299999999999999E-003    1.579656901863065E-002
 -7.199999999999999E-003    1.568955635747796E-002
 -7.100000000000000E-003    1.556347103878862E-002
 -6.999999999999999E-003    1.541764457846865E-002
 -6.899999999999999E-003    1.525140586247126E-002
 -6.800000000000000E-003    1.506407737425706E-002
 -6.699999999999999E-003    1.485497669150340E-002
 -6.599999999999999E-003    1.462342140951304E-002
 -6.499999999999999E-003    1.436872439536549E-002
 -6.399999999999999E-003    1.409019681873713E-002
 -6.299999999999999E-003    1.378714872389901E-002
 -6.199999999999999E-003    1.345889247101738E-002
 -6.100000000000000E-003    1.310473659170950E-002
 -5.999999999999999E-003    1.272399399630182E-002
 -5.899999999999999E-003    1.231597800279051E-002
 -5.800000000000000E-003    1.188000679985097E-002
 -5.699999999999999E-003    1.141539903373874E-002
 -5.599999999999999E-003    1.092148306131938E-002
 -5.499999999999999E-003    1.039758931996435E-002
 -5.399999999999999E-003    9.843055731769757E-003
 -5.299999999999999E-003    9.257231170969882E-003
 -5.199999999999999E-003    8.639468664580782E-003
 -5.099999999999999E-003    7.989133578164335E-003
 -4.999999999999999E-003    7.305602833298452E-003
 -4.899999999999999E-003    6.588262482309569E-003
 -4.799999999999999E-003    5.836514863563980E-003
 -4.699999999999999E-003    5.049774085105468E-003
 -4.599999999999999E-003    4.227470430808069E-003
 -4.499999999999999E-003    3.369050492968133E-003
 -4.399999999999999E-003    2.473978945792170E-003
 -4.299999999999999E-003    1.541736309074620E-003
 -4.199999999999999E-003    5.718260597816162E-004
 -4.099999999999999E-003   -4.362274656845358E-004
 -3.999999999999999E-003   -1.482879459996429E-003
 -3.899999999999999E-003   -2.568561609155464E-003
 -3.799999999999999E-003   -3.693679291180154E-003
 -3.699999999999999E-003   -4.858611908615309E-003
 -3.599999999999999E-003   -6.063714111137227E-003
 -3.499999999999999E-003   -7.309310957891196E-003
 -3.399999999999999E-003   -8.595699990186553E-003
 -3.299999999999999E-003   -9.923144641701321E-003
 -3.199999999999999E-003   -1.129188056124177E-002
 -3.099999999999999E-003   -1.270211012421666E-002
 -2.999999999999999E-003   -1.415399924441386E-002
 -2.899999999999999E-003   -1.564768139094163E-002
 -2.799999999999999E-003   -1.718325162376008E-002
 -2.699999999999999E-003   -1.876076822238771E-002
 -2.599999999999999E-003   -2.038025128687578E-002
 -2.499999999999999E-003   -2.204168018974974E-002
 -2.399999999999999E-003   -2.374499334297265E-002
 -2.299999999999999E-003   -2.549008853615982E-002
 -2.199999999999999E-003   -2.727681872220526E-002
 -2.099999999999999E-003   -2.910499247270798E-002
 -1.999999999999999E-003   -3.097437738222309E-002
 -1.899999999999999E-003   -3.288469150769423E-002
 -1.799999999999999E-003   -3.483560680151436E-002
 -1.699999999999999E-003   -3.682674733157514E-002
 -1.599999999999999E-003   -3.885769020052306E-002
 -1.499999999999999E-003   -4.092796739559759E-002
 -1.399999999999999E-003   -4.303705298118114E-002
 -1.299999999999999E-003   -4.518437618892467E-002
 -1.199999999999999E-003   -4.736930889451126E-002
 -1.099999999999999E-003   -4.959117734731673E-002
 -9.999999999999989E-004   -5.184925697208960E-002
 -8.999999999999990E-004   -5.414276336605767E-002
 -7.999999999999990E-004   -5.647086530215029E-002
 -6.999999999999989E-004   -5.883267301790925E-002
 -5.999999999999990E-004   -6.122724660319469E-002
 -4.999999999999989E-004   -6.365358683450523E-002
 -3.999999999999989E-004   -6.611064479776636E-002
 -2.999999999999989E-004   -6.859731849654813E-002
 -1.999999999999989E-004   -7.111245298677893E-002
 -9.999999999999892E-005   -7.365483080042903E-002
  1.084202172485504E-018   -7.622318574449570E-002
  1.000000000000011E-004   -7.881619640703265E-002
  2.000000000000011E-004   -8.143249076545896E-002
  3.000000000000011E-004   -8.407063636742829E-002
  4.000000000000011E-004   -8.672914952075880E-002
  5.000000000000011E-004   -8.940649654777436E-002
  6.000000000000011E-004   -9.210109355901423E-002
  7.000000000000011E-004   -9.481130073780517E-002
  8.000000000000011E-004   -9.753542129934226E-002
  9.000000000000012E-004   -0.100271723003811     
  1.000000000000001E-003   -0.103018407604107     
  1.100000000000001E-003   -0.105773640031764     
  1.200000000000001E-003   -0.108535539069400     
  1.300000000000001E-003   -0.111302168439837     
  1.400000000000001E-003   -0.114071550769978     
  1.500000000000001E-003   -0.116841661555727     
  1.600000000000001E-003   -0.119610444280854     
  1.700000000000001E-003   -0.122375784267996     
  1.800000000000001E-003   -0.125135548443943     
  1.900000000000001E-003   -0.127887549180850     
  2.000000000000001E-003   -0.130629569803824     
  2.100000000000001E-003   -0.133359356691475     
  2.200000000000001E-003   -0.136074623969050     
  2.300000000000001E-003   -0.138773049532793     
  2.400000000000001E-003   -0.141452292720835     
  2.500000000000001E-003   -0.144109982813956     
  2.600000000000001E-003   -0.146743729155383     
  2.700000000000001E-003   -0.149351095072636     
  2.800000000000001E-003   -0.151929649531451     
  2.900000000000001E-003   -0.154476939639583     
  3.000000000000001E-003   -0.156990478662672     
  3.100000000000001E-003   -0.159467787211140     
  3.200000000000001E-003   -0.161906361130185     
  3.300000000000001E-003   -0.164303698629917     
  3.400000000000001E-003   -0.166657290350180     
  3.500000000000001E-003   -0.168964613807949     
  3.600000000000001E-003   -0.171223145692792     
  3.700000000000001E-003   -0.173430380496774     
  3.800000000000001E-003   -0.175583818207125     
  3.900000000000001E-003   -0.177680941810237     
  4.000000000000001E-003   -0.179719266975841     
  4.100000000000001E-003   -0.181696313732857     
  4.200000000000001E-003   -0.183609615447561     
  4.300000000000001E-003   -0.185456735477348     
  4.400000000000001E-003   -0.187235248051395     
  4.500000000000001E-003   -0.188942766370085     
  4.600000000000002E-003   -0.190576926333748     
  4.700000000000001E-003   -0.192135392440255     
  4.800000000000001E-003   -0.193615880370252     
  4.900000000000002E-003   -0.195016097847115     
  5.000000000000001E-003   -0.196333841530812     
  5.100000000000001E-003   -0.197566922042078     
  5.200000000000001E-003   -0.198713212807500     
  5.300000000000002E-003   -0.199770627624813     
  5.400000000000001E-003   -0.200737136203351     
  5.500000000000001E-003   -0.201610752642962     
  5.600000000000002E-003   -0.202389552502720     
  5.700000000000001E-003   -0.203071677056668     
  5.800000000000001E-003   -0.203655343123745     
  5.900000000000002E-003   -0.204138804230167     
  6.000000000000001E-003   -0.204520403009347     
  6.100000000000001E-003   -0.204798535704942     
  6.200000000000002E-003   -0.204971691963953     
  6.300000000000002E-003   -0.205038429399810     
  6.400000000000001E-003   -0.204997388325058     
  6.500000000000001E-003   -0.204847273674182     
  6.600000000000002E-003   -0.204586893742518     
  6.700000000000001E-003   -0.204215132908799     
  6.800000000000001E-003   -0.203730963936128     
  6.900000000000002E-003   -0.203133450969967     
  7.000000000000001E-003   -0.202421758304631     
  7.100000000000001E-003   -0.201595119792015     
  7.200000000000002E-003   -0.200652872314205     
  7.300000000000002E-003   -0.199594457003970     
  7.400000000000001E-003   -0.198419396425541     
  7.500000000000001E-003   -0.197127342060584     
  7.600000000000002E-003   -0.195718012895537     
  7.700000000000001E-003   -0.194191258910085     
  7.800000000000001E-003   -0.192547009666061     
  7.900000000000001E-003   -0.190785319463434     
  8.000000000000002E-003   -0.188906333761658     
  8.100000000000001E-003   -0.186910308510604     
  8.200000000000001E-003   -0.184797614687304     
  8.300000000000002E-003   -0.182568723370497     
  8.400000000000001E-003   -0.180224200062679     
  8.500000000000002E-003   -0.177764721621616     
  8.600000000000002E-003   -0.175191088190421     
  8.700000000000001E-003   -0.172504200833080     
  8.800000000000002E-003   -0.169705054715681     
  8.900000000000002E-003   -0.166794755724507     
  9.000000000000001E-003   -0.163774534217614     
  9.100000000000002E-003   -0.160645705994410     
  9.200000000000002E-003   -0.157409698842117     
  9.300000000000001E-003   -0.154068045883548     
  9.400000000000002E-003   -0.150622381268592     
  9.500000000000001E-003   -0.147074446369979     
  9.600000000000001E-003   -0.143426075411018     
  9.700000000000002E-003   -0.139679221010688     
  9.800000000000001E-003   -0.135835903219989     
  9.900000000000001E-003   -0.131898260302330     
  1.000000000000000E-002   -0.127868507897206     
  1.010000000000000E-002   -0.123748976073081     
  1.020000000000000E-002   -0.119542067610001     
  1.030000000000000E-002   -0.115250282508959     
  1.040000000000000E-002   -0.110876198762170     
  1.050000000000000E-002   -0.106422483785547     
  1.060000000000000E-002   -0.101891891836276     
  1.070000000000000E-002   -9.728724613608766E-002
  1.080000000000000E-002   -9.261144432624996E-002
  1.090000000000000E-002   -8.786746760403147E-002
  1.100000000000000E-002   -8.305836417742452E-002
  1.110000000000000E-002   -7.818724664071494E-002
  1.120000000000000E-002   -7.325728679674856E-002
  1.130000000000000E-002   -6.827172668220813E-002
  1.140000000000000E-002   -6.323385669762635E-002
  1.150000000000000E-002   -5.814702452872589E-002
  1.160000000000000E-002   -5.301463324114915E-002
  1.170000000000000E-002   -4.784011948507195E-002
  1.180000000000000E-002   -4.262698644022764E-002
  1.190000000000000E-002   -3.737876104405867E-002
  1.200000000000000E-002   -3.209900425463923E-002
  1.210000000000000E-002   -2.679132255389038E-002
  1.220000000000000E-002   -2.145934832939864E-002
  1.230000000000000E-002   -1.610674162067447E-002
  1.240000000000000E-002   -1.073718006163150E-002
  1.250000000000000E-002   -5.354361561687851E-003
  1.260000000000000E-002    3.800721401625226E-005
  1.270000000000000E-002    5.436203597677460E-003
  1.280000000000000E-002    1.083650595324996E-002
  1.290000000000000E-002    1.623518642628257E-002
  1.300000000000000E-002    2.162852265556747E-002
  1.310000000000000E-002    2.701279711173997E-002
  1.320000000000000E-002    3.238430349305348E-002
  1.330000000000000E-002    3.773934541421702E-002
  1.340000000000000E-002    4.307425113067716E-002
  1.350000000000000E-002    4.838536576451915E-002
  1.360000000000000E-002    5.366905429822012E-002
  1.370000000000000E-002    5.892172083687354E-002
  1.380000000000000E-002    6.413979325675780E-002
  1.390000000000000E-002    6.931973320397923E-002
  1.400000000000000E-002    7.445805119619743E-002
  1.410000000000000E-002    7.955129426730757E-002
  1.420000000000000E-002    8.459606928188397E-002
  1.430000000000000E-002    8.958902299482964E-002
  1.440000000000000E-002    9.452685673260064E-002
  1.450000000000000E-002    9.940633496048097E-002
  1.460000000000000E-002    0.104224279801708     
  1.470000000000000E-002    0.108977582224859     
  1.480000000000000E-002    0.113663193689949     
  1.490000000000000E-002    0.118278135133308     
  1.500000000000000E-002    0.122819505129961     
  1.510000000000000E-002    0.127284468726138     
  1.520000000000000E-002    0.131670281095835     
  1.530000000000000E-002    0.135974277107229     
  1.540000000000000E-002    0.140193853030239     
  1.550000000000000E-002    0.144326522617607     
  1.560000000000000E-002    0.148369865530235     
  1.570000000000000E-002    0.152321549989438     
  1.580000000000000E-002    0.156179354729790     
  1.590000000000000E-002    0.159941155016716     
  1.600000000000000E-002    0.163604888981344     
  1.610000000000000E-002    0.167168632145109     
  1.620000000000000E-002    0.170630535786410     
  1.630000000000000E-002    0.173988863032937     
  1.640000000000000E-002    0.177241965650795     
  1.650000000000000E-002    0.180388306577114     
  1.660000000000000E-002    0.183426458889110     
  1.670000000000000E-002    0.186355082793450     
  1.680000000000000E-002    0.189172936351945     
  1.690000000000000E-002    0.191878911336137     
  1.700000000000000E-002    0.194471989754447     
  1.710000000000000E-002    0.196951254768260     
  1.720000000000000E-002    0.199315914440909     
  1.730000000000000E-002    0.201565265859343     
  1.740000000000000E-002    0.203698727878127     
  1.750000000000000E-002    0.205715818909863     
  1.760000000000000E-002    0.207616165802472     
  1.770000000000000E-002    0.209399501666180     
  1.780000000000000E-002    0.211065662488286     
  1.790000000000000E-002    0.212614595566738     
  1.800000000000000E-002    0.214046339072887     
  1.810000000000000E-002    0.215361049479309     
  1.820000000000000E-002    0.216558992266413     
  1.830000000000000E-002    0.217640505104335     
  1.840000000000000E-002    0.218606031883150     
  1.850000000000000E-002    0.219456126864597     
  1.860000000000000E-002    0.220191430569449     
  1.870000000000000E-002    0.220812687758012     