 -4.000000000000000E-002    0.000000000000000E+000
 -3.990000000000000E-002    0.000000000000000E+000
 -3.980000000000000E-002    0.000000000000000E+000
 -3.970000000000000E-002    0.000000000000000E+000
 -3.960000000000000E-002    0.000000000000000E+000
 -3.950000000000000E-002    0.000000000000000E+000
 -3.940000000000000E-002    0.000000000000000E+000
 -3.930000000000000E-002    0.000000000000000E+000
 -3.920000000000000E-002    0.000000000000000E+000
 -3.910000000000000E-002    0.000000000000000E+000
 -3.900000000000000E-002    0.000000000000000E+000
 -3.890000000000000E-002    0.000000000000000E+000
 -3.880000000000000E-002    0.000000000000000E+000
 -3.870000000000000E-002   -1.067995470553483E-039
 -3.860000000000000E-002   -2.632559742394023E-038
 -3.850000000000000E-002   -3.321251788551590E-037
 -3.840000000000000E-002   -2.854045172550932E-036
 -3.830000000000000E-002   -1.875807820830484E-035
 -3.820000000000000E-002   -1.003847842069288E-034
 -3.810000000000000E-002   -4.547055180229228E-034
 -3.800000000000000E-002   -1.789057243430501E-033
 -3.790000000000000E-002   -6.225649444564810E-033
 -3.780000000000000E-002   -1.940561534776387E-032
 -3.770000000000000E-002   -5.465290871358445E-032
 -3.760000000000000E-002   -1.397923583298972E-031
 -3.750000000000000E-002   -3.252434988655961E-031
 -3.740000000000000E-002   -6.861908156451222E-031
 -3.730000000000000E-002   -1.298909503194463E-030
 -3.720000000000000E-002   -2.148877515302310E-030
 -3.710000000000000E-002   -2.896597150198939E-030
 -3.700000000000000E-002   -2.395609570519030E-030
 -3.690000000000000E-002    2.147115270535165E-030
 -3.680000000000000E-002    1.640278817194833E-029
 -3.670000000000000E-002    5.034251876334031E-029
 -3.660000000000000E-002    1.191535514432269E-028
 -3.650000000000000E-002    2.421321876547318E-028
 -3.640000000000000E-002    4.369196178780060E-028
 -3.630000000000000E-002    7.052968194367746E-028
 -3.620000000000000E-002    1.006193189289181E-027
 -3.610000000000000E-002    1.212671071985962E-027
 -3.600000000000000E-002    1.053934032532522E-027
 -3.590000000000000E-002    5.249962025757524E-029
 -3.580000000000000E-002   -2.518317849779562E-027
 -3.570000000000000E-002   -7.611103914247941E-027
 -3.560000000000000E-002   -1.624755682523817E-026
 -3.550000000000000E-002   -2.914463759341061E-026
 -3.540000000000000E-002   -4.604349641241666E-026
 -3.530000000000000E-002   -6.470118399440409E-026
 -3.520000000000000E-002   -7.960033512047246E-026
 -3.510000000000000E-002   -8.059475508800163E-026
 -3.500000000000000E-002   -5.193659445025625E-026
 -3.490000000000000E-002    2.760574126392707E-026
 -3.480000000000000E-002    1.825959199507598E-025
 -3.470000000000000E-002    4.357022751325034E-025
 -3.460000000000000E-002    7.985259857281657E-025
 -3.450000000000000E-002    1.258205954536998E-024
 -3.440000000000000E-002    1.760634518671693E-024
 -3.430000000000000E-002    2.192769690334030E-024
 -3.420000000000000E-002    2.368565711036471E-024
 -3.410000000000000E-002    2.025114602767304E-024
 -3.400000000000000E-002    8.371043751217037E-025
 -3.390000000000000E-002   -1.542092785769897E-024
 -3.380000000000000E-002   -5.406292036897940E-024
 -3.370000000000000E-002   -1.088757244266594E-023
 -3.360000000000000E-002   -1.781840734551964E-023
 -3.350000000000000E-002   -2.558079963072032E-023
 -3.340000000000000E-002   -3.296958990641352E-023
 -3.330000000000000E-002   -3.810733332249929E-023
 -3.320000000000000E-002   -3.845445611291718E-023
 -3.310000000000000E-002   -3.095813453043910E-023
 -3.300000000000000E-002   -1.237406011931779E-023
 -3.290000000000000E-002    2.022346446439450E-023
 -3.280000000000000E-002    6.875468240010778E-023
 -3.270000000000000E-002    1.333140982621647E-022
 -3.260000000000000E-002    2.112910365969447E-022
 -3.250000000000000E-002    2.965306188716971E-022
 -3.240000000000000E-002    3.786502190138556E-022
 -3.230000000000000E-002    4.426326812748887E-022
 -3.220000000000000E-002    4.688191623328625E-022
 -3.210000000000000E-002    4.334324897914853E-022
 -3.200000000000000E-002    3.097863942287501E-022
 -3.190000000000000E-002    7.038558402419908E-023
 -3.180000000000000E-002   -3.098095512624260E-022
 -3.170000000000000E-002   -8.486159561721794E-022
 -3.160000000000000E-002   -1.550015360539364E-021
 -3.150000000000000E-002   -2.395479721064216E-021
 -3.140000000000000E-002   -3.333368576397716E-021
 -3.130000000000000E-002   -4.267181861520019E-021
 -3.120000000000000E-002   -5.044432608025713E-021
 -3.110000000000000E-002   -5.449151175761585E-021
 -3.100000000000000E-002   -5.202359280777194E-021
 -3.090000000000000E-002   -3.975909400886366E-021
 -3.080000000000000E-002   -1.425390678866023E-021
 -3.070000000000000E-002    2.753192925781095E-021
 -3.060000000000000E-002    8.741102232686089E-021
 -3.050000000000000E-002    1.649198088171966E-020
 -3.040000000000000E-002    2.561450456864601E-020
 -3.030000000000000E-002    3.526102057211385E-020
 -3.020000000000000E-002    4.404901912426019E-020
 -3.010000000000000E-002    5.004864565383419E-020
 -3.000000000000000E-002    5.087137079088530E-020
 -2.990000000000000E-002    4.388988407334978E-020
 -2.980000000000000E-002    2.660529009269580E-020
 -2.970000000000000E-002   -2.845732135972122E-021
 -2.960000000000000E-002   -4.508288406577584E-020
 -2.950000000000000E-002   -9.884861563128429E-020
 -2.940000000000000E-002   -1.604587697301345E-019
 -2.930000000000000E-002   -2.234721832264532E-019
 -2.920000000000000E-002   -2.787204048057195E-019
 -2.910000000000000E-002   -3.148188415361905E-019
 -2.900000000000000E-002   -3.192299692912659E-019
 -2.890000000000000E-002   -2.798687956004022E-019
 -2.880000000000000E-002   -1.871374044870283E-019
 -2.870000000000000E-002   -3.616440117969504E-020
 -2.860000000000000E-002    1.710731193210630E-019
 -2.850000000000000E-002    4.241292958046319E-019
 -2.840000000000000E-002    7.033580635189754E-019
 -2.830000000000000E-002    9.803869162499416E-019
 -2.820000000000000E-002    1.219964348434196E-018
 -2.810000000000000E-002    1.383139048626920E-018
 -2.800000000000000E-002    1.431486736933820E-018
 -2.790000000000000E-002    1.331872559323628E-018
 -2.780000000000000E-002    1.061076562403545E-018
 -2.770000000000000E-002    6.095705357065187E-019
 -2.760000000000000E-002   -1.615880091037542E-020
 -2.750000000000000E-002   -7.930771821066364E-019
 -2.740000000000000E-002   -1.682814567826024E-018
 -2.730000000000000E-002   -2.634145809089672E-018
 -2.720000000000000E-002   -3.585897477270286E-018
 -2.710000000000000E-002   -4.469259879918709E-018
 -2.700000000000000E-002   -5.208591422879572E-018
 -2.690000000000000E-002   -5.720266771653912E-018
 -2.680000000000000E-002   -5.909913481999767E-018
 -2.670000000000000E-002   -5.669402062346794E-018
 -2.660000000000000E-002   -4.875964924294526E-018
 -2.650000000000000E-002   -3.396552409913882E-018
 -2.640000000000000E-002   -1.100657221814274E-018
 -2.630000000000000E-002    2.115916320746538E-018
 -2.620000000000000E-002    6.295668602706262E-018
 -2.610000000000000E-002    1.137447832179416E-017
 -2.600000000000000E-002    1.713265728530345E-017
 -2.590000000000000E-002    2.315102030238306E-017
 -2.580000000000000E-002    2.878384119597481E-017
 -2.570000000000000E-002    3.316180726192843E-017
 -2.560000000000000E-002    3.523697745728789E-017
 -2.550000000000000E-002    3.387767993548291E-017
 -2.540000000000000E-002    2.801429423491577E-017
 -2.530000000000000E-002    1.682739397282372E-017
 -2.520000000000000E-002   -4.088607062846271E-020
 -2.510000000000000E-002   -2.228153327104910E-017
 -2.500000000000000E-002   -4.875593124488812E-017
 -2.490000000000000E-002   -7.741479010191427E-017
 -2.480000000000000E-002   -1.053338872910288E-016
 -2.470000000000000E-002   -1.288901991471982E-016
 -2.460000000000000E-002   -1.440841481876614E-016
 -2.450000000000000E-002   -1.469903796049190E-016
 -2.440000000000000E-002   -1.342949784619081E-016
 -2.430000000000000E-002   -1.038547821288453E-016
 -2.420000000000000E-002   -5.519965072513024E-017
 -2.410000000000000E-002    1.010553190337982E-017
 -2.400000000000000E-002    8.831220242986504E-017
 -2.390000000000000E-002    1.736024637779381E-016
 -2.380000000000000E-002    2.584804421178726E-016
 -2.370000000000000E-002    3.344127811853382E-016
 -2.360000000000000E-002    3.926488090097366E-016
 -2.350000000000000E-002    4.251178224938776E-016
 -2.340000000000000E-002    4.252835055576806E-016
 -2.330000000000000E-002    3.888391300946623E-016
 -2.320000000000000E-002    3.141531559034577E-016
 -2.310000000000000E-002    2.024200939417908E-016
 -2.300000000000000E-002    5.752799763346882E-017
 -2.290000000000000E-002   -1.142890861128868E-016
 -2.280000000000000E-002   -3.049016234393911E-016
 -2.270000000000000E-002   -5.047075313675854E-016
 -2.260000000000000E-002   -7.029120496583499E-016
 -2.250000000000000E-002   -8.875995197746900E-016
 -2.240000000000000E-002   -1.045610270595517E-015
 -2.230000000000000E-002   -1.162331384037596E-015
 -2.220000000000000E-002   -1.221596386621642E-015
 -2.210000000000000E-002   -1.205947015615309E-015
 -2.200000000000000E-002   -1.097514511104780E-015
 -2.190000000000000E-002   -8.797155363073339E-016
 -2.180000000000000E-002   -5.398260877334016E-016
 -2.170000000000000E-002   -7.230430546037057E-017
 -2.160000000000000E-002    5.174874821945792E-016
 -2.150000000000000E-002    1.209724481159328E-015
 -2.140000000000000E-002    1.967440828849983E-015
 -2.130000000000000E-002    2.735504460614530E-015
 -2.120000000000000E-002    3.441930555524789E-015
 -2.110000000000000E-002    4.001995764238247E-015
 -2.100000000000000E-002    4.325241144444139E-015
 -2.090000000000000E-002    4.324996840564005E-015
 -2.080000000000000E-002    3.929577426399734E-015
 -2.070000000000000E-002    3.093866239533065E-015
 -2.060000000000000E-002    1.809728996663120E-015
 -2.050000000000000E-002    1.136275659518414E-016
 -2.040000000000000E-002   -1.910006825246794E-015
 -2.030000000000000E-002   -4.130630472742299E-015
 -2.020000000000000E-002   -6.379019464311384E-015
 -2.010000000000000E-002   -8.459835897346326E-015
 -2.000000000000000E-002   -1.016815132134301E-014
 -1.990000000000000E-002   -1.130809580078192E-014
 -1.980000000000000E-002   -1.171147904767095E-014
 -1.970000000000000E-002   -1.125418426965622E-014
 -1.960000000000000E-002   -9.868501855333510E-015
 -1.950000000000000E-002   -7.550232580173312E-015
 -1.940000000000000E-002   -4.360230976572209E-015
 -1.930000000000000E-002   -4.210005551835697E-016
 -1.920000000000000E-002    4.090363418922621E-015
 -1.910000000000000E-002    8.951104650570364E-015
 -1.900000000000000E-002    1.390188833051008E-014
 -1.890000000000000E-002    1.865475813060635E-014
 -1.880000000000000E-002    2.289956132047117E-014
 -1.870000000000000E-002    2.630952670144995E-014
 -1.860000000000000E-002    2.854770145066590E-014
 -1.850000000000000E-002    2.927672675684247E-014
 -1.840000000000000E-002    2.817459708138246E-014
 -1.830000000000000E-002    2.495851551995482E-014
 -1.820000000000000E-002    1.941765082619840E-014
 -1.810000000000000E-002    1.145368501534736E-014
 -1.800000000000000E-002    1.125767441167942E-015
 -1.790000000000000E-002   -1.130579339704073E-014
 -1.780000000000000E-002   -2.534441823214040E-014
 -1.770000000000000E-002   -4.023887620338120E-014
 -1.760000000000000E-002   -5.498923038004062E-014
 -1.750000000000000E-002   -6.838286910469690E-014
 -1.740000000000000E-002   -7.906312711989304E-014
 -1.730000000000000E-002   -8.562890553110958E-014
 -1.720000000000000E-002   -8.675925784694494E-014
 -1.710000000000000E-002   -8.135255785011100E-014
 -1.700000000000000E-002   -6.866685454538653E-014
 -1.690000000000000E-002   -4.844630864837563E-014
 -1.680000000000000E-002   -2.101877452520081E-014
 -1.670000000000000E-002    1.264801145687939E-014
 -1.660000000000000E-002    5.094043826469807E-014
 -1.650000000000000E-002    9.164706435436807E-014
 -1.640000000000000E-002    1.320592895968481E-013
 -1.630000000000000E-002    1.691183758745399E-013
 -1.620000000000000E-002    1.995991157581985E-013
 -1.610000000000000E-002    2.203180043664421E-013
 -1.600000000000000E-002    2.283537947425291E-013
 -1.590000000000000E-002    2.212685339312231E-013
 -1.580000000000000E-002    1.973195670072208E-013
 -1.570000000000000E-002    1.556536742193450E-013
 -1.560000000000000E-002    9.647622084136517E-014
 -1.550000000000000E-002    2.118689841342018E-014
 -1.540000000000000E-002   -6.752749754465482E-014
 -1.530000000000000E-002   -1.656563251735340E-013
 -1.520000000000000E-002   -2.678993601558844E-013
 -1.510000000000000E-002   -3.677900478091515E-013
 -1.500000000000000E-002   -4.579238079957543E-013
 -1.490000000000000E-002   -5.303043958534578E-013
 -1.480000000000000E-002   -5.768116779608249E-013
 -1.470000000000000E-002   -5.897823195501740E-013
 -1.460000000000000E-002   -5.626787682975265E-013
 -1.450000000000000E-002   -4.908046146594144E-013
 -1.440000000000000E-002   -3.720088029637831E-013
 -1.430000000000000E-002   -2.073087068328151E-013
 -1.420000000000000E-002   -1.356607100850242E-015
 -1.410000000000000E-002    2.373224393659110E-013
 -1.400000000000000E-002    4.963817557851682E-013
 -1.390000000000000E-002    7.600318488633953E-013
 -1.380000000000000E-002    1.009758627356361E-012
 -1.370000000000000E-002    1.225359488381939E-012
 -1.360000000000000E-002    1.386244807051452E-012
 -1.350000000000000E-002    1.472924954885446E-012
 -1.340000000000000E-002    1.468580455463202E-012
 -1.330000000000000E-002    1.360603999298932E-012
 -1.320000000000000E-002    1.141999388633869E-012
 -1.310000000000000E-002    8.125343897159196E-013
 -1.300000000000000E-002    3.795558121185979E-013
 -1.290000000000000E-002   -1.416003076499572E-013
 -1.280000000000000E-002   -7.276536030028421E-013
 -1.270000000000000E-002   -1.347907887369175E-012
 -1.260000000000000E-002   -1.965276937689209E-012
 -1.250000000000000E-002   -2.537805957953725E-012
 -1.240000000000000E-002   -3.020671921555499E-012
 -1.230000000000000E-002   -3.368632501436707E-012
 -1.220000000000000E-002   -3.538868949907649E-012
 -1.210000000000000E-002   -3.494131084491137E-012
 -1.200000000000000E-002   -3.206058524638980E-012
 -1.190000000000000E-002   -2.658494156998395E-012
 -1.180000000000000E-002   -1.850557839642441E-012
 -1.170000000000000E-002   -7.991981743437996E-013
 -1.160000000000000E-002    4.590912965897429E-013
 -1.150000000000000E-002    1.867704098420697E-012
 -1.140000000000000E-002    3.350792281852105E-012
 -1.130000000000000E-002    4.815785125274634E-012
 -1.120000000000000E-002    6.157654626504518E-012
 -1.110000000000000E-002    7.264863096079615E-012
 -1.100000000000000E-002    8.026774077079406E-012
 -1.090000000000000E-002    8.342098839498206E-012
 -1.080000000000000E-002    8.127814266421413E-012
 -1.070000000000000E-002    7.327847815551544E-012
 -1.060000000000000E-002    5.920752720042370E-012
 -1.050000000000000E-002    3.925627967303349E-012
 -1.040000000000000E-002    1.405596288107329E-012
 -1.030000000000000E-002   -1.531671497831558E-012
 -1.020000000000000E-002   -4.736700093125575E-012
 -1.010000000000000E-002   -8.024259708049096E-012
 -1.000000000000000E-002   -1.118250937202097E-011
 -9.899999999999999E-003   -1.398479428761656E-011
 -9.800000000000000E-003   -1.620341670224296E-011
 -9.699999999999999E-003   -1.762457700758860E-011
 -9.599999999999999E-003   -1.806360323412928E-011
 -9.500000000000000E-003   -1.737955542252903E-011
 -9.399999999999999E-003   -1.548834616891409E-011
 -9.299999999999999E-003   -1.237357042555847E-011
 -9.200000000000000E-003   -8.094347428153149E-012
 -9.099999999999999E-003   -2.789571428793781E-012
 -8.999999999999999E-003    3.321960648362858E-012
 -8.900000000000000E-003    9.945913660101701E-012
 -8.799999999999999E-003    1.672161437513337E-011
 -8.699999999999999E-003    2.323619919182875E-011
 -8.600000000000000E-003    2.904369197193034E-011
 -8.499999999999999E-003    3.368866480376838E-011
 -8.399999999999999E-003    3.673383871376988E-011
 -8.300000000000000E-003    3.779050925636257E-011
 -8.199999999999999E-003    3.655025389155167E-011
 -8.100000000000000E-003    3.281595402005899E-011
 -8.000000000000000E-003    2.652971529466568E-011
 -7.899999999999999E-003    1.779512735574943E-011
 -7.800000000000000E-003    6.891204647725201E-012
 -7.699999999999999E-003   -5.724351350140366E-012
 -7.599999999999999E-003   -1.942437857089072E-011
 -7.499999999999999E-003   -3.343511800316299E-011
 -7.399999999999999E-003   -4.687255484465817E-011
 -7.299999999999999E-003   -5.879115153809823E-011
 -7.199999999999999E-003   -6.824255564832373E-011
 -7.100000000000000E-003   -7.434073968535024E-011
 -6.999999999999999E-003   -7.632916385212018E-011
 -6.899999999999999E-003   -7.364511828225516E-011
 -6.800000000000000E-003   -6.597616512112469E-011
 -6.699999999999999E-003   -5.330395123725093E-011
 -6.599999999999999E-003   -3.593150651197617E-011
 -6.499999999999999E-003   -1.449120944088930E-011
 -6.399999999999999E-003    1.006815525075217E-011
 -6.299999999999999E-003    3.651521921377806E-011
 -6.199999999999999E-003    6.338954207025742E-011
 -6.100000000000000E-003    8.907209312945799E-011
 -5.999999999999999E-003    1.118693887949021E-010
 -5.899999999999999E-003    1.301070051741771E-010
 -5.800000000000000E-003    1.422279352493015E-010
 -5.699999999999999E-003    1.468911998528408E-010
 -5.599999999999999E-003    1.430659372213532E-010
 -5.499999999999999E-003    1.301165289973238E-010
 -5.399999999999999E-003    1.078743538595597E-010
 -5.299999999999999E-003    7.669199626549016E-011
 -5.199999999999999E-003    3.747571327872369E-011
 -5.099999999999999E-003   -8.307538397383439E-012
 -4.999999999999999E-003   -5.865206429668457E-011
 -4.899999999999999E-003   -1.110670883621518E-010
 -4.799999999999999E-003   -1.626636704852457E-010
 -4.699999999999999E-003   -2.102749364211814E-010
 -4.599999999999999E-003   -2.506077308101589E-010
 -4.499999999999999E-003   -2.804210948320794E-010
 -4.399999999999999E-003   -2.967245138418587E-010
 -4.299999999999999E-003   -2.969862214544518E-010
 -4.199999999999999E-003   -2.793394065396884E-010
 -4.099999999999999E-003   -2.427727262807240E-010
 -3.999999999999999E-003   -1.872904680207732E-010
 -3.899999999999999E-003   -1.140283537714284E-010
 -3.799999999999999E-003   -2.531245625216002E-011
 -3.699999999999999E-003    7.534853462569138E-011
 -3.599999999999999E-003    1.833438272646505E-010
 -3.499999999999999E-003    2.931150309924822E-010
 -3.399999999999999E-003    3.983818285437818E-010
 -3.299999999999999E-003    4.924305015888376E-010
 -3.199999999999999E-003    5.684536609949419E-010
 -3.099999999999999E-003    6.199251329505168E-010
 -2.999999999999999E-003    6.409925469388246E-010
 -2.899999999999999E-003    6.268679958386814E-010
 -2.799999999999999E-003    5.741973901884704E-010
 -2.699999999999999E-003    4.813894799563024E-010
 -2.599999999999999E-003    3.488862002367018E-010
 -2.499999999999999E-003    1.793578806490233E-010
 -2.399999999999999E-003   -2.219076925987641E-011
 -2.299999999999999E-003   -2.484173629396350E-010
 -2.199999999999999E-003   -4.897508893084142E-010
 -2.099999999999999E-003   -7.346210626739147E-010
 -1.999999999999999E-003   -9.698122648071528E-010
 -1.899999999999999E-003   -1.180941107280326E-009
 -1.799999999999999E-003   -1.353052873942367E-009
 -1.699999999999999E-003   -1.471323937519807E-009
 -1.599999999999999E-003   -1.521850048285895E-009
 -1.499999999999999E-003   -1.492492493751091E-009
 -1.399999999999999E-003   -1.373745416496949E-009
 -1.299999999999999E-003   -1.159579746851433E-009
 -1.199999999999999E-003   -8.482146585925612E-010
 -1.099999999999999E-003   -4.427626093560093E-010
 -9.999999999999989E-004    4.830441798375472E-011
 -8.999999999999990E-004    6.109165656550767E-010
 -7.999999999999990E-004    1.225437215032495E-009
 -6.999999999999989E-004    1.866991102419874E-009
 -5.999999999999990E-004    2.506106173153454E-009
 -4.999999999999989E-004    3.109664525456122E-009
 -3.999999999999989E-004    3.642142395934548E-009
 -2.999999999999989E-004    4.067101230718171E-009
 -1.999999999999989E-004    4.348875423278579E-009
 -9.999999999999892E-005    4.454390446982780E-009
  1.084202172485504E-018    4.355035844934393E-009
  1.000000000000011E-004    4.028510666063404E-009
  2.000000000000011E-004    3.460562954477071E-009
  3.000000000000011E-004    2.646542478199244E-009
  4.000000000000011E-004    1.592702500130227E-009
  5.000000000000011E-004    3.171840693579749E-010
  6.000000000000011E-004   -1.149356110447924E-009
  7.000000000000011E-004   -2.763511085793260E-009
  8.000000000000011E-004   -4.469294074380485E-009
  9.000000000000012E-004   -6.198716979290866E-009
  1.000000000000001E-003   -7.872752447735449E-009
  1.100000000000001E-003   -9.402657152516390E-009
  1.200000000000001E-003   -1.069158811256703E-008
  1.300000000000001E-003   -1.163646592964104E-008
  1.400000000000001E-003   -1.212998476912195E-008
  1.500000000000001E-003   -1.206270413949279E-008
  1.600000000000001E-003   -1.132509531343392E-008
  1.700000000000001E-003   -9.809469932423910E-009
  1.800000000000001E-003   -7.411678041600551E-009
  1.900000000000001E-003   -4.032494192880074E-009
  2.000000000000001E-003    4.213869660296698E-010
  2.100000000000001E-003    6.036778630019207E-009
  2.200000000000001E-003    1.289388745126862E-008
  2.300000000000001E-003    2.106664136604310E-008
  2.400000000000001E-003    3.062343989022162E-008
  2.500000000000001E-003    4.162821256038066E-008
  2.600000000000001E-003    5.414175950082849E-008
  2.700000000000001E-003    6.822317492548132E-008
  2.800000000000001E-003    8.393127203410349E-008
  2.900000000000001E-003    1.013259452316071E-007
  3.000000000000001E-003    1.204692285149220E-007
  3.100000000000001E-003    1.414260585755011E-007
  3.200000000000001E-003    1.642646589351695E-007
  3.300000000000001E-003    1.890564927367616E-007
  3.400000000000001E-003    2.158758732620532E-007
  3.500000000000001E-003    2.447991913929063E-007
  3.600000000000001E-003    2.759038806526820E-007
  3.700000000000001E-003    3.092673998280267E-007
  3.800000000000001E-003    3.449660978684293E-007
  3.900000000000001E-003    3.830743832373198E-007
  4.000000000000001E-003    4.236642161177902E-007
  4.100000000000001E-003    4.668051015823793E-007
  4.200000000000001E-003    5.125647348469438E-007
  4.300000000000001E-003    5.610104780755670E-007
  4.400000000000001E-003    6.122112624171554E-007
  4.500000000000001E-003    6.662406607035087E-007
  4.600000000000002E-003    7.231803651060571E-007
  4.700000000000001E-003    7.831243964123951E-007
  4.800000000000001E-003    8.461836814727838E-007
  4.900000000000002E-003    9.124908298453478E-007
  5.000000000000001E-003    9.822048039141788E-007
  5.100000000000001E-003    1.055515308404109E-006
  5.200000000000001E-003    1.132646750148182E-006
  5.300000000000002E-003    1.213860989894457E-006
  5.400000000000001E-003    1.299459338155041E-006
  5.500000000000001E-003    1.389783228010586E-006
  5.600000000000002E-003    1.485213407254363E-006
  5.700000000000001E-003    1.586167726915593E-006
  5.800000000000001E-003    1.693098021244422E-006
  5.900000000000002E-003    1.806485266262671E-006
  6.000000000000001E-003    1.926834217581720E-006
  6.100000000000001E-003    2.054667406295586E-006
  6.200000000000002E-003    2.190519013808256E-006
  6.300000000000002E-003    2.334928812120442E-006
  6.400000000000001E-003    2.488437004969279E-006
  6.500000000000001E-003    2.651580477737260E-006
  6.600000000000002E-003    2.824889453895163E-006
  6.700000000000001E-003    3.008886716376864E-006
  6.800000000000001E-003    3.204089391504826E-006
  6.900000000000002E-003    3.411010520326386E-006
  7.000000000000001E-003    3.630164741248927E-006
  7.100000000000001E-003    3.862074127924933E-006
  7.200000000000002E-003    4.107276382485140E-006
  7.300000000000002E-003    4.366332436009098E-006
  7.400000000000001E-003    4.639836388473980E-006
  7.500000000000001E-003    4.928424702413016E-006
  7.600000000000002E-003    5.232784750645519E-006
  7.700000000000001E-003    5.553662428864455E-006
  7.800000000000001E-003    5.891868684043895E-006
  7.900000000000001E-003    6.248285633392825E-006
  8.000000000000002E-003    6.623868939383219E-006
  8.100000000000001E-003    7.019651003167127E-006
  8.200000000000001E-003    7.436740939595505E-006
  8.300000000000002E-003    7.876324427492396E-006
  8.400000000000001E-003    8.339660096631404E-006
  8.500000000000002E-003    8.828078259678603E-006
  8.600000000000002E-003    9.342976620010241E-006
  8.700000000000001E-003    9.885817511423570E-006
  8.800000000000002E-003    1.045812252304333E-005
  8.900000000000002E-003    1.106146978024017E-005
  9.000000000000001E-003    1.169749439296046E-005
  9.100000000000002E-003    1.236788465671237E-005
  9.200000000000002E-003    1.307438124796965E-005
  9.300000000000001E-003    1.381878084673521E-005
  9.400000000000002E-003    1.460293393286489E-005
  9.500000000000001E-003    1.542875411279753E-005
  9.600000000000001E-003    1.629821961621992E-005
  9.700000000000002E-003    1.721337743498438E-005
  9.800000000000001E-003    1.817635437503376E-005
  9.900000000000001E-003    1.918936198180458E-005
  1.000000000000000E-002    2.025470523240797E-005
  1.010000000000000E-002    2.137478897353901E-005
  1.020000000000000E-002    2.255213030312453E-005
  1.030000000000000E-002    2.378936119596254E-005
  1.040000000000000E-002    2.508924011670122E-005
  1.050000000000000E-002    2.645465423233470E-005
  1.060000000000000E-002    2.788862702396551E-005
  1.070000000000000E-002    2.939432042042330E-005
  1.080000000000000E-002    3.097504246399809E-005
  1.090000000000000E-002    3.263424554259506E-005
  1.100000000000000E-002    3.437552261484507E-005
  1.110000000000000E-002    3.620261548998322E-005
  1.120000000000000E-002    3.811940884364913E-005
  1.130000000000000E-002    4.012993657183103E-005
  1.140000000000000E-002    4.223837104299098E-005
  1.150000000000000E-002    4.444903210787639E-005
  1.160000000000000E-002    4.676639129877092E-005
  1.170000000000000E-002    4.919506420103986E-005
  1.180000000000000E-002    5.173982471945416E-005
  1.190000000000000E-002    5.440561139426970E-005
  1.200000000000000E-002    5.719753123625021E-005
  1.210000000000000E-002    6.012086711915117E-005
  1.220000000000000E-002    6.318109298028889E-005
  1.230000000000000E-002    6.638388937874192E-005
  1.240000000000000E-002    6.973514585333628E-005
  1.250000000000000E-002    7.324097349083308E-005
  1.260000000000000E-002    7.690771609609112E-005
  1.270000000000000E-002    8.074196916788844E-005
  1.280000000000000E-002    8.475056970609197E-005
  1.290000000000000E-002    8.894062419979938E-005
  1.300000000000000E-002    9.331949089907102E-005
  1.310000000000000E-002    9.789479113974980E-005
  1.320000000000000E-002    1.026744197752678E-004
  1.330000000000000E-002    1.076665328304118E-004
  1.340000000000000E-002    1.128795414357162E-004
  1.350000000000000E-002    1.183221326328725E-004
  1.360000000000000E-002    1.240032497147880E-004
  1.370000000000000E-002    1.299320943381331E-004
  1.380000000000000E-002    1.361181318248967E-004
  1.390000000000000E-002    1.425710853334460E-004
  1.400000000000000E-002    1.493009403096669E-004
  1.410000000000000E-002    1.563179772976554E-004
  1.420000000000000E-002    1.636327143316661E-004
  1.430000000000000E-002    1.712559959412095E-004
  1.440000000000000E-002    1.791989612885956E-004
  1.450000000000000E-002    1.874730398608264E-004
  1.460000000000000E-002    1.960899850337993E-004
  1.470000000000000E-002    2.050618974208726E-004
  1.480000000000000E-002    2.144012364572979E-004
  1.490000000000000E-002    2.241207951452934E-004
  1.500000000000000E-002    2.342337461357982E-004
  1.510000000000000E-002    2.447536543769353E-004
  1.520000000000000E-002    2.556944608924942E-004
  1.530000000000000E-002    2.670705196142953E-004
  1.540000000000000E-002    2.788965794905755E-004
  1.550000000000000E-002    2.911877941995434E-004
  1.560000000000000E-002    3.039597720562780E-004
  1.570000000000000E-002    3.172284680167057E-004
  1.580000000000000E-002    3.310102873431905E-004
  1.590000000000000E-002    3.453220130219571E-004
  1.600000000000000E-002    3.601808791486701E-004
  1.610000000000000E-002    3.756044946538441E-004
  1.620000000000000E-002    3.916108394736009E-004
  1.630000000000000E-002    4.082183169739046E-004
  1.640000000000000E-002    4.254456699957191E-004
  1.650000000000000E-002    4.433120259458416E-004
  1.660000000000000E-002    4.618368667380527E-004
  1.670000000000000E-002    4.810400176130016E-004
  1.680000000000000E-002    5.009416837115505E-004
  1.690000000000000E-002    5.215623734268286E-004
  1.700000000000000E-002    5.429229555454411E-004
  1.710000000000000E-002    5.650446297213016E-004
  1.720000000000000E-002    5.879489841828216E-004
  1.730000000000000E-002    6.116578608301444E-004
  1.740000000000000E-002    6.361935892804085E-004
  1.750000000000000E-002    6.615787627445881E-004
  1.760000000000000E-002    6.878363648489553E-004
  1.770000000000000E-002    7.149897705145468E-004
  1.780000000000000E-002    7.430627719281426E-004
  1.790000000000000E-002    7.720795211552363E-004
  1.800000000000000E-002    8.020646237857299E-004
  1.810000000000000E-002    8.330429796787175E-004
  1.820000000000000E-002    8.650399513873251E-004
  1.830000000000000E-002    8.980812482196389E-004
  1.840000000000000E-002    9.321929535086932E-004
  1.850000000000000E-002    9.674014449830791E-004
  1.860000000000000E-002    1.003733424181514E-003
  1.870000000000000E-002    1.041215947780786E-003