 -4.000000000000000E-002    0.000000000000000E+000
 -3.990000000000000E-002    0.000000000000000E+000
 -3.980000000000000E-002    0.000000000000000E+000
 -3.970000000000000E-002    0.000000000000000E+000
 -3.960000000000000E-002    0.000000000000000E+000
 -3.950000000000000E-002    0.000000000000000E+000
 -3.940000000000000E-002    0.000000000000000E+000
 -3.930000000000000E-002    0.000000000000000E+000
 -3.920000000000000E-002    0.000000000000000E+000
 -3.910000000000000E-002    0.000000000000000E+000
 -3.900000000000000E-002   -9.220268637563617E-032
 -3.890000000000000E-002   -1.598886157713092E-030
 -3.880000000000000E-002   -1.431380316943037E-029
 -3.870000000000000E-002   -8.785339228568939E-029
 -3.860000000000000E-002   -4.140740397295406E-028
 -3.850000000000000E-002   -1.590558983133612E-027
 -3.840000000000000E-002   -5.154846770260034E-027
 -3.830000000000000E-002   -1.438009657356260E-026
 -3.820000000000000E-002   -3.483395674486769E-026
 -3.810000000000000E-002   -7.301226982550374E-026
 -3.800000000000000E-002   -1.291872693681083E-025
 -3.790000000000000E-002   -1.775911704622610E-025
 -3.780000000000000E-002   -1.243364017540613E-025
 -3.770000000000000E-002    2.661048561266894E-025
 -3.760000000000000E-002    1.476551812057709E-024
 -3.750000000000000E-002    4.352574634600415E-024
 -3.740000000000000E-002    1.016215260714502E-023
 -3.730000000000000E-002    2.046978356891425E-023
 -3.720000000000000E-002    3.662141696868199E-023
 -3.710000000000000E-002    5.858263090472188E-023
 -3.700000000000000E-002    8.289073460526884E-023
 -3.690000000000000E-002    9.964366691270636E-023
 -3.680000000000000E-002    8.882889961072583E-023
 -3.670000000000000E-002    1.693969519684199E-023
 -3.660000000000000E-002   -1.642967229405934E-022
 -3.650000000000000E-002   -5.143026899478555E-022
 -3.640000000000000E-002   -1.091667381667254E-021
 -3.630000000000000E-002   -1.930362478036192E-021
 -3.620000000000000E-002   -3.002100736002714E-021
 -3.610000000000000E-002   -4.166042678441265E-021
 -3.600000000000000E-002   -5.112451629536295E-021
 -3.590000000000000E-002   -5.314111335183480E-021
 -3.580000000000000E-002   -4.007186423877622E-021
 -3.570000000000000E-002   -2.296041733994782E-022
 -3.560000000000000E-002    7.053001164239915E-021
 -3.550000000000000E-002    1.870954758184026E-020
 -3.540000000000000E-002    3.508614656041541E-020
 -3.530000000000000E-002    5.554951853695209E-020
 -3.520000000000000E-002    7.798991838151837E-020
 -3.510000000000000E-002    9.838538947041331E-020
 -3.500000000000000E-002    1.105676753900976E-019
 -3.490000000000000E-002    1.063517825519033E-019
 -3.480000000000000E-002    7.618299947896340E-020
 -3.470000000000000E-002    1.040703708654514E-020
 -3.460000000000000E-002   -9.882319105228193E-020
 -3.450000000000000E-002   -2.551194822257434E-019
 -3.440000000000000E-002   -4.551727657532868E-019
 -3.430000000000000E-002   -6.862123037418070E-019
 -3.420000000000000E-002   -9.241059366607545E-019
 -3.410000000000000E-002   -1.132616939847159E-018
 -3.400000000000000E-002   -1.264255576404906E-018
 -3.390000000000000E-002   -1.262997589410410E-018
 -3.380000000000000E-002   -1.068910453757921E-018
 -3.370000000000000E-002   -6.244968182383745E-019
 -3.360000000000000E-002    1.176113977589570E-019
 -3.350000000000000E-002    1.186025549934566E-018
 -3.340000000000000E-002    2.581369976826268E-018
 -3.330000000000000E-002    4.266591582180496E-018
 -3.320000000000000E-002    6.156774391644542E-018
 -3.310000000000000E-002    8.108446333981662E-018
 -3.300000000000000E-002    9.908787197944064E-018
 -3.290000000000000E-002    1.126613819640030E-017
 -3.280000000000000E-002    1.180480908203731E-017
 -3.270000000000000E-002    1.106919788085841E-017
 -3.260000000000000E-002    8.544225645329719E-018
 -3.250000000000000E-002    3.700271536201227E-018
 -3.240000000000000E-002   -3.929713193290346E-018
 -3.230000000000000E-002   -1.463639957249522E-017
 -3.220000000000000E-002   -2.838553307636777E-017
 -3.210000000000000E-002   -4.464639044790700E-017
 -3.200000000000000E-002   -6.222125703136509E-017
 -3.190000000000000E-002   -7.911275757504012E-017
 -3.180000000000000E-002   -9.247625148504523E-017
 -3.170000000000000E-002   -9.870883902125017E-017
 -3.160000000000000E-002   -9.372098440735480E-017
 -3.150000000000000E-002   -7.341880035918881E-017
 -3.140000000000000E-002   -3.439339889867275E-017
 -3.130000000000000E-002    2.522954838799514E-017
 -3.120000000000000E-002    1.048764020626836E-016
 -3.110000000000000E-002    2.006924674268164E-016
 -3.100000000000000E-002    3.049678782836270E-016
 -3.090000000000000E-002    4.060119332505171E-016
 -3.080000000000000E-002    4.886414029788096E-016
 -3.070000000000000E-002    5.353862513362594E-016
 -3.060000000000000E-002    5.284157739235123E-016
 -3.050000000000000E-002    4.520609715217347E-016
 -3.040000000000000E-002    2.956729284573264E-016
 -3.030000000000000E-002    5.643629122188738E-017
 -3.020000000000000E-002   -2.583200117691231E-016
 -3.010000000000000E-002   -6.297816029356727E-016
 -3.000000000000000E-002   -1.027670224537148E-015
 -2.990000000000000E-002   -1.411861992469978E-015
 -2.980000000000000E-002   -1.735607791455274E-015
 -2.970000000000000E-002   -1.950099433123208E-015
 -2.960000000000000E-002   -2.009873315201428E-015
 -2.950000000000000E-002   -1.878356699366416E-015
 -2.940000000000000E-002   -1.532789083540790E-015
 -2.930000000000000E-002   -9.678184069564270E-016
 -2.920000000000000E-002   -1.972851108862875E-016
 -2.910000000000000E-002    7.459624626935021E-016
 -2.900000000000000E-002    1.812001297753558E-015
 -2.890000000000000E-002    2.936945747270879E-015
 -2.880000000000000E-002    4.046454254476453E-015
 -2.870000000000000E-002    5.058830454643803E-015
 -2.860000000000000E-002    5.887155831141142E-015
 -2.850000000000000E-002    6.440350753185792E-015
 -2.840000000000000E-002    6.623683185663486E-015
 -2.830000000000000E-002    6.339864922825214E-015
 -2.820000000000000E-002    5.492339821151326E-015
 -2.810000000000000E-002    3.992478312695318E-015
 -2.800000000000000E-002    1.772016571067420E-015
 -2.790000000000000E-002   -1.198846286475026E-015
 -2.780000000000000E-002   -4.888690035228167E-015
 -2.770000000000000E-002   -9.180146830064933E-015
 -2.760000000000000E-002   -1.384756790473322E-014
 -2.750000000000000E-002   -1.854269762433301E-014
 -2.740000000000000E-002   -2.279439135971759E-014
 -2.730000000000000E-002   -2.602771204180872E-014
 -2.720000000000000E-002   -2.760575745556763E-014
 -2.710000000000000E-002   -2.689435730553040E-014
 -2.700000000000000E-002   -2.334577648786680E-014
 -2.690000000000000E-002   -1.659325944764922E-014
 -2.680000000000000E-002   -6.544508010762772E-015
 -2.670000000000000E-002    6.540250273658496E-015
 -2.660000000000000E-002    2.200033721133152E-014
 -2.650000000000000E-002    3.876958070217301E-014
 -2.640000000000000E-002    5.542233266072607E-014
 -2.630000000000000E-002    7.027232466822174E-014
 -2.620000000000000E-002    8.151842311361355E-014
 -2.610000000000000E-002    8.742388178784604E-014
 -2.600000000000000E-002    8.650953350420500E-014
 -2.590000000000000E-002    7.773795967390803E-014
 -2.580000000000000E-002    6.066548341993411E-014
 -2.570000000000000E-002    3.554270312571052E-014
 -2.560000000000000E-002    3.350801997134062E-015
 -2.550000000000000E-002   -3.422985864007099E-014
 -2.540000000000000E-002   -7.491338762542092E-014
 -2.530000000000000E-002   -1.159505002655718E-013
 -2.520000000000000E-002   -1.543007088559659E-013
 -2.510000000000000E-002   -1.868149847320417E-013
 -2.500000000000000E-002   -2.104130645303012E-013
 -2.490000000000000E-002   -2.222461103173402E-013
 -2.480000000000000E-002   -2.198445281578392E-013
 -2.470000000000000E-002   -2.012584369959835E-013
 -2.460000000000000E-002   -1.652039264037458E-013
 -2.450000000000000E-002   -1.112276446917579E-013
 -2.440000000000000E-002   -3.989656756720152E-014
 -2.430000000000000E-002    4.699288607412279E-014
 -2.420000000000000E-002    1.462080721931001E-013
 -2.410000000000000E-002    2.529147684621079E-013
 -2.400000000000000E-002    3.606057879276397E-013
 -2.390000000000000E-002    4.611828538183217E-013
 -2.380000000000000E-002    5.452455354862999E-013
 -2.370000000000000E-002    6.026247574269823E-013
 -2.360000000000000E-002    6.231669447385097E-013
 -2.350000000000000E-002    5.977374988644910E-013
 -2.340000000000000E-002    5.193685297083732E-013
 -2.330000000000000E-002    3.844371153540196E-013
 -2.320000000000000E-002    1.937308086427140E-013
 -2.310000000000000E-002   -4.675397191981856E-014
 -2.300000000000000E-002   -3.254253544696440E-013
 -2.290000000000000E-002   -6.252330737800975E-013
 -2.280000000000000E-002   -9.243915481896909E-013
 -2.270000000000000E-002   -1.197683521609158E-012
 -2.260000000000000E-002   -1.418271216675774E-012
 -2.250000000000000E-002   -1.559877953532465E-012
 -2.240000000000000E-002   -1.599155145772482E-012
 -2.230000000000000E-002   -1.518022466015300E-012
 -2.220000000000000E-002   -1.305766224985257E-012
 -2.210000000000000E-002   -9.607084429030763E-013
 -2.200000000000000E-002   -4.912943903390746E-013
 -2.190000000000000E-002    8.349334859102995E-014
 -2.180000000000000E-002    7.344390463482541E-013
 -2.170000000000000E-002    1.423108127250698E-012
 -2.160000000000000E-002    2.103528972822336E-012
 -2.150000000000000E-002    2.724482268458443E-012
 -2.140000000000000E-002    3.232319436170795E-012
 -2.130000000000000E-002    3.574231253823618E-012
 -2.120000000000000E-002    3.701876810570458E-012
 -2.110000000000000E-002    3.575249080925825E-012
 -2.100000000000000E-002    3.166626086192051E-012
 -2.090000000000000E-002    2.464381669734856E-012
 -2.080000000000000E-002    1.476377605745480E-012
 -2.070000000000000E-002    2.325790294728002E-013
 -2.060000000000000E-002   -1.213501855487033E-012
 -2.050000000000000E-002   -2.784927218706315E-012
 -2.040000000000000E-002   -4.383374222230792E-012
 -2.030000000000000E-002   -5.893311016167226E-012
 -2.020000000000000E-002   -7.188364497178911E-012
 -2.010000000000000E-002   -8.139684305200157E-012
 -2.000000000000000E-002   -8.625871828379035E-012
 -1.990000000000000E-002   -8.543780165008135E-012
 -1.980000000000000E-002   -7.819307198921616E-012
 -1.970000000000000E-002   -6.417175657237152E-012
 -1.960000000000000E-002   -4.348695952063767E-012
 -1.950000000000000E-002   -1.676604829365743E-012
 -1.940000000000000E-002    1.483721392084312E-012
 -1.930000000000000E-002    4.967054024515992E-012
 -1.920000000000000E-002    8.565148949601391E-012
 -1.910000000000000E-002    1.203732010362892E-011
 -1.900000000000000E-002    1.512413683131453E-011
 -1.890000000000000E-002    1.756339104417939E-011
 -1.880000000000000E-002    1.910734844110510E-011
 -1.870000000000000E-002    1.954027114691122E-011
 -1.860000000000000E-002    1.869524086698788E-011
 -1.850000000000000E-002    1.646941553635361E-011
 -1.840000000000000E-002    1.283694757790545E-011
 -1.830000000000000E-002    7.858894851067702E-012
 -1.820000000000000E-002    1.689493740522676E-012
 -1.810000000000000E-002   -5.421858715112544E-012
 -1.800000000000000E-002   -1.313354889422897E-011
 -1.790000000000000E-002   -2.102034634642883E-011
 -1.780000000000000E-002   -2.858822132625508E-011
 -1.770000000000000E-002   -3.529582823811774E-011
 -1.760000000000000E-002   -4.058265774158131E-011
 -1.750000000000000E-002   -4.390339938800394E-011
 -1.740000000000000E-002   -4.476717829883206E-011
 -1.730000000000000E-002   -4.277967941945112E-011
 -1.720000000000000E-002   -3.768520447664284E-011
 -1.710000000000000E-002   -2.940515313784392E-011
 -1.700000000000000E-002   -1.806890808544469E-011
 -1.690000000000000E-002   -4.033273121580882E-012
 -1.680000000000000E-002    1.211311037131394E-011
 -1.670000000000000E-002    2.956279395822619E-011
 -1.660000000000000E-002    4.732110356578094E-011
 -1.650000000000000E-002    6.425574361716412E-011
 -1.640000000000000E-002    7.916191340818853E-011
 -1.630000000000000E-002    9.083900049872616E-011
 -1.620000000000000E-002    9.817332068211288E-011
 -1.610000000000000E-002    1.002207065054421E-010
 -1.600000000000000E-002    9.628259474667949E-011
 -1.590000000000000E-002    8.596961698897492E-011
 -1.580000000000000E-002    6.924800489259164E-011
 -1.570000000000000E-002    4.646551101483211E-011
 -1.560000000000000E-002    1.835532358755666E-011
 -1.550000000000000E-002   -1.398174343096921E-011
 -1.540000000000000E-002   -4.911510670676735E-011
 -1.530000000000000E-002   -8.533980301547290E-011
 -1.520000000000000E-002   -1.207460965090895E-010
 -1.510000000000000E-002   -1.533003385418532E-010
 -1.500000000000000E-002   -1.809342432086123E-010
 -1.490000000000000E-002   -2.016404469414110E-010
 -1.480000000000000E-002   -2.135725268394034E-010
 -1.470000000000000E-002   -2.151476915923932E-010
 -1.460000000000000E-002   -2.051499416261784E-010
 -1.450000000000000E-002   -1.828306407130051E-010
 -1.440000000000000E-002   -1.480017307122347E-010
 -1.430000000000000E-002   -1.011154585360940E-010
 -1.420000000000000E-002   -4.332302894677269E-011
 -1.410000000000000E-002    2.349664375655579E-011
 -1.400000000000000E-002    9.674630810746961E-011
 -1.390000000000000E-002    1.731652202344929E-010
 -1.380000000000000E-002    2.489343131549799E-010
 -1.370000000000000E-002    3.198323355292977E-010
 -1.360000000000000E-002    3.814390385333602E-010
 -1.350000000000000E-002    4.293766154000706E-010
 -1.340000000000000E-002    4.595755789316868E-010
 -1.330000000000000E-002    4.685471635495044E-010
 -1.320000000000000E-002    4.536428523549743E-010
 -1.310000000000000E-002    4.132800083714584E-010
 -1.300000000000000E-002    3.471161741204383E-010
 -1.290000000000000E-002    2.561566383710460E-010
 -1.280000000000000E-002    1.427864507752630E-010
 -1.270000000000000E-002    1.072419759836222E-011
 -1.260000000000000E-002   -1.350992994318045E-010
 -1.250000000000000E-002   -2.887277849072037E-010
 -1.240000000000000E-002   -4.434194536700438E-010
 -1.230000000000000E-002   -5.919230740066429E-010
 -1.220000000000000E-002   -7.267755433024682E-010
 -1.210000000000000E-002   -8.406057099530673E-010
 -1.200000000000000E-002   -9.264328224189810E-010
 -1.190000000000000E-002   -9.779503858752475E-010
 -1.180000000000000E-002   -9.897903372538648E-010
 -1.170000000000000E-002   -9.577629332197224E-010
 -1.160000000000000E-002   -8.790694359325083E-010
 -1.150000000000000E-002   -7.524841309113862E-010
 -1.140000000000000E-002   -5.784997482653602E-010
 -1.130000000000000E-002   -3.594285719129042E-010
 -1.120000000000000E-002   -9.945063412474462E-011
 -1.110000000000000E-002    1.954017505821517E-010
 -1.100000000000000E-002    5.173299819026815E-010
 -1.090000000000000E-002    8.569308958937734E-010
 -1.080000000000000E-002    1.203430989711118E-009
 -1.070000000000000E-002    1.544985932824492E-009
 -1.060000000000000E-002    1.869025192635609E-009
 -1.050000000000000E-002    2.162620354593585E-009
 -1.040000000000000E-002    2.412848264518744E-009
 -1.030000000000000E-002    2.607121275079223E-009
 -1.020000000000000E-002    2.733461744951633E-009
 -1.010000000000000E-002    2.780710669348835E-009
 -1.000000000000000E-002    2.738667548239261E-009
 -9.899999999999999E-003    2.598186959039129E-009
 -9.800000000000000E-003    2.351259710724673E-009
 -9.699999999999999E-003    1.991139361980067E-009
 -9.599999999999999E-003    1.512567904297021E-009
 -9.500000000000000E-003    9.121697563564920E-010
 -9.399999999999999E-003    1.890736399268823E-010
 -9.299999999999999E-003   -6.541956023954347E-010
 -9.200000000000000E-003   -1.610527744713556E-009
 -9.099999999999999E-003   -2.666751229238791E-009
 -8.999999999999999E-003   -3.801905322553715E-009
 -8.900000000000000E-003   -4.985330577425281E-009
 -8.799999999999999E-003   -6.174683010634017E-009
 -8.699999999999999E-003   -7.313985086393788E-009
 -8.600000000000000E-003   -8.331846275923097E-009
 -8.499999999999999E-003   -9.140018848399304E-009
 -8.399999999999999E-003   -9.632367484091166E-009
 -8.300000000000000E-003   -9.684433088625587E-009
 -8.199999999999999E-003   -9.153630564481885E-009
 -8.100000000000000E-003   -7.880162125183407E-009
 -8.000000000000000E-003   -5.688696584066796E-009
 -7.899999999999999E-003   -2.390775219756176E-009
 -7.800000000000000E-003    2.212059890825860E-009
 -7.699999999999999E-003    8.324498839226929E-009
 -7.599999999999999E-003    1.615316717802096E-008
 -7.499999999999999E-003    2.590191383741291E-008
 -7.399999999999999E-003    3.776683605795117E-008
 -7.299999999999999E-003    5.193132177687395E-008
 -7.199999999999999E-003    6.856119625940048E-008
 -7.100000000000000E-003    8.780030656457823E-008
 -6.999999999999999E-003    1.097667957862467E-007
 -6.899999999999999E-003    1.345503018521876E-007
 -6.800000000000000E-003    1.622102742707058E-007
 -6.699999999999999E-003    1.927757485715222E-007
 -6.599999999999999E-003    2.262465659109285E-007
 -6.499999999999999E-003    2.625962260268137E-007
 -6.399999999999999E-003    3.017763517603132E-007
 -6.299999999999999E-003    3.437226046034162E-007
 -6.199999999999999E-003    3.883618857563571E-007
 -6.100000000000000E-003    4.356204373276600E-007
 -5.999999999999999E-003    4.854326311750237E-007
 -5.899999999999999E-003    5.377497452449220E-007
 -5.800000000000000E-003    5.925485011096967E-007
 -5.699999999999999E-003    6.498388669454898E-007
 -5.599999999999999E-003    7.096705869873204E-007
 -5.499999999999999E-003    7.721383481168769E-007
 -5.399999999999999E-003    8.373852205876857E-007
 -5.299999999999999E-003    9.056042049782279E-007
 -5.199999999999999E-003    9.770383863949878E-007
 -5.099999999999999E-003    1.051979073930042E-006
 -4.999999999999999E-003    1.130762994216241E-006
 -4.899999999999999E-003    1.213767813125167E-006
 -4.799999999999999E-003    1.301407801030908E-006
 -4.699999999999999E-003    1.394127909387941E-006
 -4.599999999999999E-003    1.492398614253324E-006
 -4.499999999999999E-003    1.596710599855133E-006
 -4.399999999999999E-003    1.707569428307175E-006
 -4.299999999999999E-003    1.825491302218909E-006
 -4.199999999999999E-003    1.950998424142415E-006
 -4.099999999999999E-003    2.084616281061913E-006
 -3.999999999999999E-003    2.226870437638566E-006
 -3.899999999999999E-003    2.378285132460075E-006
 -3.799999999999999E-003    2.539382258704517E-006
 -3.699999999999999E-003    2.710680972151044E-006
 -3.599999999999999E-003    2.892699396019185E-006
 -3.499999999999999E-003    3.085956300243567E-006
 -3.399999999999999E-003    3.290974971364574E-006
 -3.299999999999999E-003    3.508287914785341E-006
 -3.199999999999999E-003    3.738441859090495E-006
 -3.099999999999999E-003    3.982005687643959E-006
 -2.999999999999999E-003    4.239577188131803E-006
 -2.899999999999999E-003    4.511791575802274E-006
 -2.799999999999999E-003    4.799328944582443E-006
 -2.699999999999999E-003    5.102923332422601E-006
 -2.599999999999999E-003    5.423368150204963E-006
 -2.499999999999999E-003    5.761523576000279E-006
 -2.399999999999999E-003    6.118320169638217E-006
 -2.299999999999999E-003    6.494762175189264E-006
 -2.199999999999999E-003    6.891928558170596E-006
 -2.099999999999999E-003    7.310972103519121E-006
 -1.999999999999999E-003    7.753117145511761E-006
 -1.899999999999999E-003    8.219657096449833E-006
 -1.799999999999999E-003    8.711949549362223E-006
 -1.699999999999999E-003    9.231411087678011E-006
 -1.599999999999999E-003    9.779514711646706E-006
 -1.499999999999999E-003    1.035778533409227E-005
 -1.399999999999999E-003    1.096779791262661E-005
 -1.299999999999999E-003    1.161117635068625E-005
 -1.199999999999999E-003    1.228959600727813E-005
 -1.099999999999999E-003    1.300478671354103E-005
 -9.999999999999989E-004    1.375853920418193E-005
 -8.999999999999990E-004    1.455271285173705E-005
 -7.999999999999990E-004    1.538924424716465E-005
 -6.999999999999989E-004    1.627015846932356E-005
 -5.999999999999990E-004    1.719758256168715E-005
 -4.999999999999989E-004    1.817375270993496E-005
 -3.999999999999989E-004    1.920103118623962E-005
 -2.999999999999989E-004    2.028190826789119E-005
 -1.999999999999989E-004    2.141901738749051E-005
 -9.999999999999892E-005    2.261513567336164E-005
  1.084202172485504E-018    2.387319117524450E-005
  1.000000000000011E-004    2.519626108711226E-005
  2.000000000000011E-004    2.658756957163468E-005
  3.000000000000011E-004    2.805048283195206E-005
  4.000000000000011E-004    2.958850782289019E-005
  5.000000000000011E-004    3.120527871353700E-005
  6.000000000000011E-004    3.290455572332712E-005
  7.000000000000011E-004    3.469022048771528E-005
  8.000000000000011E-004    3.656626237531131E-005
  9.000000000000012E-004    3.853678619473899E-005
  1.000000000000001E-003    4.060600626361635E-005
  1.100000000000001E-003    4.277825843323270E-005
  1.200000000000001E-003    4.505799308985858E-005
  1.300000000000001E-003    4.744980406550949E-005
  1.400000000000001E-003    4.995843612076212E-005
  1.500000000000001E-003    5.258879399026249E-005
  1.600000000000001E-003    5.534597520409913E-005
  1.700000000000001E-003    5.823528129533994E-005
  1.800000000000001E-003    6.126224408827688E-005
  1.900000000000001E-003    6.443264435708154E-005
  2.000000000000001E-003    6.775253277466177E-005
  2.100000000000001E-003    7.122824111951089E-005
  2.200000000000001E-003    7.486640215861610E-005
  2.300000000000001E-003    7.867396340622442E-005
  2.400000000000001E-003    8.265817540918331E-005
  2.500000000000001E-003    8.682662441946957E-005
  2.600000000000001E-003    9.118720190429884E-005
  2.700000000000001E-003    9.574811396082978E-005
  2.800000000000001E-003    1.005178785948961E-004
  2.900000000000001E-003    1.055053125992589E-004
  3.000000000000001E-003    1.107195265088816E-004
  3.100000000000001E-003    1.161698984985393E-004
  3.200000000000001E-003    1.218660738775913E-004
  3.300000000000001E-003    1.278179787429720E-004
  3.400000000000001E-003    1.340357747869428E-004
  3.500000000000001E-003    1.405298833279028E-004
  3.600000000000001E-003    1.473109851934715E-004
  3.700000000000001E-003    1.543900160267813E-004
  3.800000000000001E-003    1.617781887876209E-004
  3.900000000000001E-003    1.694870044893825E-004
  4.000000000000001E-003    1.775282705095309E-004
  4.100000000000001E-003    1.859141296349085E-004
  4.200000000000001E-003    1.946570730765370E-004
  4.300000000000001E-003    2.037699708156489E-004
  4.400000000000001E-003    2.132661143824693E-004
  4.500000000000001E-003    2.231592215094688E-004
  4.600000000000002E-003    2.334634523098933E-004
  4.700000000000001E-003    2.441934700963671E-004
  4.800000000000001E-003    2.553644281317796E-004
  4.900000000000002E-003    2.669919729205341E-004
  5.000000000000001E-003    2.790922612500477E-004
  5.100000000000001E-003    2.916819798503689E-004
  5.200000000000001E-003    3.047783265680874E-004
  5.300000000000002E-003    3.183989920405084E-004
  5.400000000000001E-003    3.325621611771359E-004
  5.500000000000001E-003    3.472864737036131E-004
  5.600000000000002E-003    3.625910830257688E-004
  5.700000000000001E-003    3.784955606012408E-004
  5.800000000000001E-003    3.950199710236297E-004
  5.900000000000002E-003    4.121847798645053E-004
  6.000000000000001E-003    4.300108843942763E-004
  6.100000000000001E-003    4.485196159941338E-004
  6.200000000000002E-003    4.677327208344406E-004
  6.300000000000002E-003    4.876723729923103E-004
  6.400000000000001E-003    5.083611762402489E-004
  6.500000000000001E-003    5.298221564948279E-004
  6.600000000000002E-003    5.520788023110383E-004
  6.700000000000001E-003    5.751550142790573E-004
  6.800000000000001E-003    5.990751689445245E-004
  6.900000000000002E-003    6.238640592752245E-004
  7.000000000000001E-003    6.495469940783778E-004
  7.100000000000001E-003    6.761497922105296E-004
  7.200000000000002E-003    7.036985760385040E-004
  7.300000000000002E-003    7.322201330025803E-004
  7.400000000000001E-003    7.617416661718551E-004
  7.500000000000001E-003    7.922908614259907E-004
  7.600000000000002E-003    8.238958237887419E-004
  7.700000000000001E-003    8.565852978757156E-004
  7.800000000000001E-003    8.903883840378009E-004
  7.900000000000001E-003    9.253347843989057E-004
  8.000000000000002E-003    9.614545320897371E-004
  8.100000000000001E-003    9.987782322303184E-004
  8.200000000000001E-003    1.037337019977351E-003
  8.300000000000002E-003    1.077162273644355E-003
  8.400000000000001E-003    1.118285835532657E-003
  8.500000000000002E-003    1.160740149780683E-003
  8.600000000000002E-003    1.204557723411096E-003
  8.700000000000001E-003    1.249771606852949E-003
  8.800000000000002E-003    1.296415009298835E-003
  8.900000000000002E-003    1.344521579368270E-003
  9.000000000000001E-003    1.394125083189919E-003
  9.100000000000002E-003    1.445259487549675E-003
  9.200000000000002E-003    1.497958960715800E-003
  9.300000000000001E-003    1.552257779614314E-003
  9.400000000000002E-003    1.608190451644696E-003
  9.500000000000001E-003    1.665791457446742E-003
  9.600000000000001E-003    1.725095350991659E-003
  9.700000000000002E-003    1.786136727587644E-003
  9.800000000000001E-003    1.848950121576115E-003
  9.900000000000001E-003    1.913570129362295E-003
  1.000000000000000E-002    1.980031346438827E-003
  1.010000000000000E-002    2.048368100346614E-003
  1.020000000000000E-002    2.118614802800757E-003
  1.030000000000000E-002    2.190805711264163E-003
  1.040000000000000E-002    2.264974511951501E-003
  1.050000000000000E-002    2.341155454335364E-003
  1.060000000000000E-002    2.419381999272165E-003
  1.070000000000000E-002    2.499687311095457E-003
  1.080000000000000E-002    2.582104406108194E-003
  1.090000000000000E-002    2.666666026295764E-003
  1.100000000000000E-002    2.753404466378764E-003
  1.110000000000000E-002    2.842351537756000E-003
  1.120000000000000E-002    2.933538576229840E-003
  1.130000000000000E-002    3.026996447589126E-003
  1.140000000000000E-002    3.122755309794201E-003
  1.150000000000000E-002    3.220845007574378E-003
  1.160000000000000E-002    3.321294184827892E-003
  1.170000000000000E-002    3.424130877529069E-003
  1.180000000000000E-002    3.529382296967453E-003
  1.190000000000000E-002    3.637074759412930E-003
  1.200000000000000E-002    3.747233225513527E-003
  1.210000000000000E-002    3.859881901245780E-003
  1.220000000000000E-002    3.975043267054141E-003
  1.230000000000000E-002    4.092739178525078E-003
  1.240000000000000E-002    4.212989505403956E-003
  1.250000000000000E-002    4.335812927091165E-003
  1.260000000000000E-002    4.461226770955006E-003
  1.270000000000000E-002    4.589246518063256E-003
  1.280000000000000E-002    4.719885976679624E-003
  1.290000000000000E-002    4.853158047229069E-003
  1.300000000000000E-002    4.989072988991790E-003
  1.310000000000000E-002    5.127639495773515E-003
  1.320000000000000E-002    5.268864839732794E-003
  1.330000000000000E-002    5.412754293677916E-003
  1.340000000000000E-002    5.559310573930462E-003
  1.350000000000000E-002    5.708535314385313E-003
  1.360000000000000E-002    5.860427463682092E-003
  1.370000000000000E-002    6.014983932656276E-003
  1.380000000000000E-002    6.172199403109667E-003
  1.390000000000000E-002    6.332065986583122E-003
  1.400000000000000E-002    6.494574008619055E-003
  1.410000000000000E-002    6.659710758555429E-003
  1.420000000000000E-002    6.827460544661748E-003
  1.430000000000000E-002    6.997806179524727E-003
  1.440000000000000E-002    7.170726167081372E-003
  1.450000000000000E-002    7.346197448196463E-003
  1.460000000000000E-002    7.524192760957789E-003
  1.470000000000000E-002    7.704682378385115E-003
  1.480000000000000E-002    7.887633531876282E-003
  1.490000000000000E-002    8.073010234085028E-003
  1.500000000000000E-002    8.260773217427462E-003
  1.510000000000000E-002    8.450880187798240E-003
  1.520000000000000E-002    8.643284190800751E-003
  1.530000000000000E-002    8.837936602674784E-003
  1.540000000000000E-002    9.034784765389658E-003
  1.550000000000000E-002    9.233771816897753E-003
  1.560000000000000E-002    9.434838080647738E-003
  1.570000000000000E-002    9.637920841252014E-003
  1.580000000000000E-002    9.842952588955383E-003
  1.590000000000000E-002    1.004986282210128E-002
  1.600000000000000E-002    1.025857757293667E-002
  1.610000000000000E-002    1.046901812071795E-002
  1.620000000000000E-002    1.068110247211082E-002
  1.630000000000000E-002    1.089474365646310E-002
  1.640000000000000E-002    1.110985209146103E-002
  1.650000000000000E-002    1.132633352170672E-002
  1.660000000000000E-002    1.154408983648381E-002
  1.670000000000000E-002    1.176301768496910E-002
  1.680000000000000E-002    1.198301146562232E-002
  1.690000000000000E-002    1.220396025843377E-002
  1.700000000000000E-002    1.242575000326893E-002
  1.710000000000000E-002    1.264826122925115E-002
  1.720000000000000E-002    1.287137199976367E-002
  1.730000000000000E-002    1.309495358690585E-002
  1.740000000000000E-002    1.331887591715447E-002
  1.750000000000000E-002    1.354300409863301E-002
  1.760000000000000E-002    1.376719848566269E-002
  1.770000000000000E-002    1.399131642144783E-002
  1.780000000000000E-002    1.421521123522516E-002
  1.790000000000000E-002    1.443873194573547E-002
  1.800000000000000E-002    1.466172338374865E-002
  1.810000000000000E-002    1.488402774051804E-002
  1.820000000000000E-002    1.510548221062519E-002
  1.830000000000000E-002    1.532592140430593E-002
  1.840000000000000E-002    1.554517545506289E-002
  1.850000000000000E-002    1.576307121145123E-002
  1.860000000000000E-002    1.597943280968036E-002
  1.870000000000000E-002    1.619407984193769E-002