 -4.000000000000000E-002    0.000000000000000E+000
 -3.990000000000000E-002    0.000000000000000E+000
 -3.980000000000000E-002    0.000000000000000E+000
 -3.970000000000000E-002    0.000000000000000E+000
 -3.960000000000000E-002    0.000000000000000E+000
 -3.950000000000000E-002    0.000000000000000E+000
 -3.940000000000000E-002    0.000000000000000E+000
 -3.930000000000000E-002    0.000000000000000E+000
 -3.920000000000000E-002    0.000000000000000E+000
 -3.910000000000000E-002    0.000000000000000E+000
 -3.900000000000000E-002    0.000000000000000E+000
 -3.890000000000000E-002    0.000000000000000E+000
 -3.880000000000000E-002    0.000000000000000E+000
 -3.870000000000000E-002    0.000000000000000E+000
 -3.860000000000000E-002    0.000000000000000E+000
 -3.850000000000000E-002    0.000000000000000E+000
 -3.840000000000000E-002    0.000000000000000E+000
 -3.830000000000000E-002    0.000000000000000E+000
 -3.820000000000000E-002    0.000000000000000E+000
 -3.810000000000000E-002    0.000000000000000E+000
 -3.800000000000000E-002    0.000000000000000E+000
 -3.790000000000000E-002    0.000000000000000E+000
 -3.780000000000000E-002    0.000000000000000E+000
 -3.770000000000000E-002    0.000000000000000E+000
 -3.760000000000000E-002    0.000000000000000E+000
 -3.750000000000000E-002    0.000000000000000E+000
 -3.740000000000000E-002    0.000000000000000E+000
 -3.730000000000000E-002    0.000000000000000E+000
 -3.720000000000000E-002    0.000000000000000E+000
 -3.710000000000000E-002    0.000000000000000E+000
 -3.700000000000000E-002    0.000000000000000E+000
 -3.690000000000000E-002    0.000000000000000E+000
 -3.680000000000000E-002    0.000000000000000E+000
 -3.670000000000000E-002    0.000000000000000E+000
 -3.660000000000000E-002    0.000000000000000E+000
 -3.650000000000000E-002    0.000000000000000E+000
 -3.640000000000000E-002    0.000000000000000E+000
 -3.630000000000000E-002    0.000000000000000E+000
 -3.620000000000000E-002    0.000000000000000E+000
 -3.610000000000000E-002    0.000000000000000E+000
 -3.600000000000000E-002    0.000000000000000E+000
 -3.590000000000000E-002    0.000000000000000E+000
 -3.580000000000000E-002    0.000000000000000E+000
 -3.570000000000000E-002    0.000000000000000E+000
 -3.560000000000000E-002    0.000000000000000E+000
 -3.550000000000000E-002    0.000000000000000E+000
 -3.540000000000000E-002    0.000000000000000E+000
 -3.530000000000000E-002    0.000000000000000E+000
 -3.520000000000000E-002    0.000000000000000E+000
 -3.510000000000000E-002   -1.503421992796275E-047
 -3.500000000000000E-002   -6.526858795522802E-047
 -3.490000000000000E-002   -2.741977896800765E-046
 -3.480000000000000E-002   -7.187702317082273E-046
 -3.470000000000000E-002   -1.641043789647204E-045
 -3.460000000000000E-002   -3.574138006765700E-045
 -3.450000000000000E-002   -7.048473097107827E-045
 -3.440000000000000E-002   -1.318046652017008E-044
 -3.430000000000000E-002   -2.312527663813497E-044
 -3.420000000000000E-002   -3.901812707066549E-044
 -3.410000000000000E-002   -6.066450475385552E-044
 -3.400000000000000E-002   -8.785208624641455E-044
 -3.390000000000000E-002   -1.159130086276686E-043
 -3.380000000000000E-002   -1.293425253423333E-043
 -3.370000000000000E-002   -9.696747682896495E-044
 -3.360000000000000E-002    4.218627220406607E-044
 -3.350000000000000E-002    3.901764735214304E-043
 -3.340000000000000E-002    1.106342372754297E-042
 -3.330000000000000E-002    2.418123969300897E-042
 -3.320000000000000E-002    4.617348078858679E-042
 -3.310000000000000E-002    8.023806179474661E-042
 -3.300000000000000E-002    1.289713728490933E-041
 -3.290000000000000E-002    1.925223234787836E-041
 -3.280000000000000E-002    2.655600162718246E-041
 -3.270000000000000E-002    3.326361198580031E-041
 -3.260000000000000E-002    3.620182491498335E-041
 -3.250000000000000E-002    2.983535144729196E-041
 -3.240000000000000E-002    5.567646361854235E-042
 -3.230000000000000E-002   -4.866100741139547E-041
 -3.220000000000000E-002   -1.480250700228662E-040
 -3.210000000000000E-002   -3.091048919984448E-040
 -3.200000000000000E-002   -5.460734228590144E-040
 -3.190000000000000E-002   -8.640355838589545E-040
 -3.180000000000000E-002   -1.249101625932249E-039
 -3.170000000000000E-002   -1.655485608011365E-039
 -3.160000000000000E-002   -1.991243064736220E-039
 -3.150000000000000E-002   -2.106228947590302E-039
 -3.140000000000000E-002   -1.788341187530618E-039
 -3.130000000000000E-002   -7.767505041264157E-040
 -3.120000000000000E-002    1.197367710356818E-039
 -3.110000000000000E-002    4.332411529054489E-039
 -3.100000000000000E-002    8.634561461234100E-039
 -3.090000000000000E-002    1.375791632330840E-038
 -3.080000000000000E-002    1.883146736137477E-038
 -3.070000000000000E-002    2.232712129424737E-038
 -3.060000000000000E-002    2.206055952940127E-038
 -3.050000000000000E-002    1.545711615995146E-038
 -3.040000000000000E-002    2.464464710873278E-040
 -3.030000000000000E-002   -2.424677286813804E-038
 -3.020000000000000E-002   -5.509995697245038E-038
 -3.010000000000000E-002   -8.310063875286946E-038
 -3.000000000000000E-002   -8.964814811105256E-038
 -2.990000000000000E-002   -4.393803497772734E-038
 -2.980000000000000E-002    9.833234016456751E-038
 -2.970000000000000E-002    3.928466425027146E-037
 -2.960000000000000E-002    8.986118364787559E-037
 -2.950000000000000E-002    1.660996048018099E-036
 -2.940000000000000E-002    2.682978497143689E-036
 -2.930000000000000E-002    3.882693638634689E-036
 -2.920000000000000E-002    5.037656734002519E-036
 -2.910000000000000E-002    5.720126693937180E-036
 -2.900000000000000E-002    5.234147405524161E-036
 -2.890000000000000E-002    2.572831662068573E-036
 -2.880000000000000E-002   -3.576146368055163E-036
 -2.870000000000000E-002   -1.473960170328183E-035
 -2.860000000000000E-002   -3.243826197208241E-035
 -2.850000000000000E-002   -5.779132371504572E-035
 -2.840000000000000E-002   -9.090982318123303E-035
 -2.830000000000000E-002   -1.300665960227621E-034
 -2.820000000000000E-002   -1.706735560140730E-034
 -2.810000000000000E-002   -2.041630546918689E-034
 -2.800000000000000E-002   -2.169573590323457E-034
 -2.790000000000000E-002   -1.898154356266700E-034
 -2.780000000000000E-002   -9.795648619707942E-035
 -2.770000000000000E-002    8.754568221375582E-035
 -2.760000000000000E-002    3.965512265784830E-034
 -2.750000000000000E-002    8.543073703235961E-034
 -2.740000000000000E-002    1.473197657890999E-033
 -2.730000000000000E-002    2.241726652657491E-033
 -2.720000000000000E-002    3.111175839065672E-033
 -2.710000000000000E-002    3.981071624897318E-033
 -2.700000000000000E-002    4.685470599401303E-033
 -2.690000000000000E-002    4.983062731634593E-033
 -2.680000000000000E-002    4.555061108345192E-033
 -2.670000000000000E-002    3.015647958708759E-033
 -2.660000000000000E-002   -5.988649270719882E-035
 -2.650000000000000E-002   -5.084457763257526E-033
 -2.640000000000000E-002   -1.238235395120443E-032
 -2.630000000000000E-002   -2.208508510086134E-032
 -2.620000000000000E-002   -3.400254442234424E-032
 -2.610000000000000E-002   -4.747721694644187E-032
 -2.600000000000000E-002   -6.123556194671252E-032
 -2.590000000000000E-002   -7.325779365669167E-032
 -2.580000000000000E-002   -8.069450722109239E-032
 -2.570000000000000E-002   -7.986482527172562E-032
 -2.560000000000000E-002   -6.637529946142502E-032
 -2.550000000000000E-002   -3.539930945590610E-032
 -2.540000000000000E-002    1.784702427385747E-032
 -2.530000000000000E-002    9.740679882512985E-032
 -2.520000000000000E-002    2.056540052138968E-031
 -2.510000000000000E-002    3.421527485029892E-031
 -2.500000000000000E-002    5.023556503273686E-031
 -2.490000000000000E-002    6.762357222655177E-031
 -2.480000000000000E-002    8.469942697554129E-031
 -2.470000000000000E-002    9.900400448468472E-031
 -2.460000000000000E-002    1.072489232548839E-030
 -2.450000000000000E-002    1.053482470188203E-030
 -2.440000000000000E-002    8.856510031704421E-031
 -2.430000000000000E-002    5.180799011393567E-031
 -2.420000000000000E-002   -9.890829559166899E-032
 -2.410000000000000E-002   -1.006892713827969E-030
 -2.400000000000000E-002   -2.230293979552402E-030
 -2.390000000000000E-002   -3.765213682492203E-030
 -2.380000000000000E-002   -5.566577282151662E-030
 -2.370000000000000E-002   -7.534408414785551E-030
 -2.360000000000000E-002   -9.500579044208805E-030
 -2.350000000000000E-002   -1.121797601960517E-029
 -2.340000000000000E-002   -1.235466008722343E-029
 -2.330000000000000E-002   -1.249618431045007E-029
 -2.320000000000000E-002   -1.115968000693514E-029
 -2.310000000000000E-002   -7.823450949687034E-030
 -2.300000000000000E-002   -1.975493140296189E-030
 -2.290000000000000E-002    6.816642694055436E-030
 -2.280000000000000E-002    1.881405127688035E-029
 -2.270000000000000E-002    3.399490871682353E-029
 -2.260000000000000E-002    5.192915167185252E-029
 -2.250000000000000E-002    7.164998036101578E-029
 -2.240000000000000E-002    9.153815853280094E-029
 -2.230000000000000E-002    1.092402148660947E-028
 -2.220000000000000E-002    1.216466153049597E-028
 -2.210000000000000E-002    1.249585538779886E-028
 -2.200000000000000E-002    1.148725445913848E-028
 -2.190000000000000E-002    8.690782063404097E-029
 -2.180000000000000E-002    3.689263370639988E-029
 -2.170000000000000E-002   -3.838927064788915E-029
 -2.160000000000000E-002   -1.404117848003032E-028
 -2.150000000000000E-002   -2.680257507747278E-028
 -2.140000000000000E-002   -4.165608349274612E-028
 -2.130000000000000E-002   -5.770186670871066E-028
 -2.120000000000000E-002   -7.354939320850838E-028
 -2.110000000000000E-002   -8.729810409128146E-028
 -2.100000000000000E-002   -9.657320344976537E-028
 -2.090000000000000E-002   -9.863192865359579E-028
 -2.080000000000000E-002   -9.055210220850926E-028
 -2.070000000000000E-002   -6.950850275442760E-028
 -2.060000000000000E-002   -3.313361258003196E-028
 -2.050000000000000E-002    2.005254121570938E-028
 -2.040000000000000E-002    9.017163489680968E-028
 -2.030000000000000E-002    1.755180903046859E-027
 -2.020000000000000E-002    2.721471780914995E-027
 -2.010000000000000E-002    3.735857881816662E-027
 -2.000000000000000E-002    4.707365995448451E-027
 -1.990000000000000E-002    5.520445471766620E-027
 -1.980000000000000E-002    6.039832875424000E-027
 -1.970000000000000E-002    6.118998660605415E-027
 -1.960000000000000E-002    5.612243181810468E-027
 -1.950000000000000E-002    4.390125761313900E-027
 -1.940000000000000E-002    2.357447176319989E-027
 -1.930000000000000E-002   -5.274710713777784E-028
 -1.920000000000000E-002   -4.233914598402444E-027
 -1.910000000000000E-002   -8.642408727334956E-027
 -1.900000000000000E-002   -1.353315050254449E-026
 -1.890000000000000E-002   -1.858157554075615E-026
 -1.880000000000000E-002   -2.336315400168625E-026
 -1.870000000000000E-002   -2.736899299806082E-026
 -1.860000000000000E-002   -3.003308053443312E-026
 -1.850000000000000E-002   -3.077094975240433E-026
 -1.840000000000000E-002   -2.902835637623397E-026
 -1.830000000000000E-002   -2.433734663639139E-026
 -1.820000000000000E-002   -1.637584527327126E-026
 -1.810000000000000E-002   -5.025942693144246E-027
 -1.800000000000000E-002    9.574595706623332E-027
 -1.790000000000000E-002    2.699335165195334E-026
 -1.780000000000000E-002    4.648203327647474E-026
 -1.770000000000000E-002    6.697750453079733E-026
 -1.760000000000000E-002    8.712800426553112E-026
 -1.750000000000000E-002    1.053454823504871E-025
 -1.740000000000000E-002    1.198829548072948E-025
 -1.730000000000000E-002    1.289335897019572E-025
 -1.720000000000000E-002    1.307458154044127E-025
 -1.710000000000000E-002    1.237476662119131E-025
 -1.700000000000000E-002    1.066722217954429E-025
 -1.690000000000000E-002    7.867595950906981E-026
 -1.680000000000000E-002    3.944261411060631E-026
 -1.670000000000000E-002   -1.073359233700702E-026
 -1.660000000000000E-002   -7.088928444534842E-026
 -1.650000000000000E-002   -1.393597372684937E-025
 -1.640000000000000E-002   -2.137723323509222E-025
 -1.630000000000000E-002   -2.910637165763379E-025
 -1.620000000000000E-002   -3.675170607820330E-025
 -1.610000000000000E-002   -4.388170314789415E-025
 -1.600000000000000E-002   -5.001199371555612E-025
 -1.590000000000000E-002   -5.461404759332696E-025
 -1.580000000000000E-002   -5.712587560211817E-025
 -1.570000000000000E-002   -5.696549201939099E-025
 -1.560000000000000E-002   -5.354826342783195E-025
 -1.550000000000000E-002   -4.630934364786254E-025
 -1.540000000000000E-002   -3.473260450530676E-025
 -1.530000000000000E-002   -1.838706647023084E-025
 -1.520000000000000E-002    3.028421657459401E-026
 -1.510000000000000E-002    2.963216864128731E-025
 -1.500000000000000E-002    6.129948985981117E-025
 -1.490000000000000E-002    9.759712626749685E-025
 -1.480000000000000E-002    1.377154383985390E-024
 -1.470000000000000E-002    1.804024701053371E-024
 -1.460000000000000E-002    2.239049256189225E-024
 -1.450000000000000E-002    2.659217071919005E-024
 -1.440000000000000E-002    3.035764773970824E-024
 -1.430000000000000E-002    3.334158563485847E-024
 -1.420000000000000E-002    3.514401895379069E-024
 -1.410000000000000E-002    3.531742971800085E-024
 -1.400000000000000E-002    3.337864127870861E-024
 -1.390000000000000E-002    2.882640100420961E-024
 -1.380000000000000E-002    2.116563592723626E-024
 -1.370000000000000E-002    9.939439155286765E-025
 -1.360000000000000E-002   -5.230102735543027E-025
 -1.350000000000000E-002   -2.459129392400633E-024
 -1.340000000000000E-002   -4.820178642205493E-024
 -1.330000000000000E-002   -7.585715642967957E-024
 -1.320000000000000E-002   -1.070103537095943E-023
 -1.310000000000000E-002   -1.406848947741328E-023
 -1.300000000000000E-002   -1.753870218534656E-023
 -1.290000000000000E-002   -2.090246756204909E-023
 -1.280000000000000E-002   -2.388448177826497E-023
 -1.270000000000000E-002   -2.614034050447812E-023
 -1.260000000000000E-002   -2.725858868932042E-023
 -1.250000000000000E-002   -2.676981643678000E-023
 -1.240000000000000E-002   -2.416489331057389E-023
 -1.230000000000000E-002   -1.892425470141119E-023
 -1.220000000000000E-002   -1.055977782227929E-023
 -1.210000000000000E-002    1.330113179683245E-024
 -1.200000000000000E-002    1.699251442669782E-023
 -1.190000000000000E-002    3.644144784044083E-023
 -1.180000000000000E-002    5.937261161273532E-023
 -1.170000000000000E-002    8.507774052244267E-023
 -1.160000000000000E-002    1.123671239484993E-022
 -1.150000000000000E-002    1.395111122131709E-022
 -1.140000000000000E-002    1.642129978053417E-022
 -1.130000000000000E-002    1.836267897017573E-022
 -1.120000000000000E-002    1.944333064054867E-022
 -1.110000000000000E-002    1.929859411728564E-022
 -1.100000000000000E-002    1.755352535173632E-022
 -1.090000000000000E-002    1.385345920294332E-022
 -1.080000000000000E-002    7.902353758706079E-023
 -1.070000000000000E-002   -4.924131062558176E-024
 -1.060000000000000E-002   -1.137109872331821E-022
 -1.050000000000000E-002   -2.457189201780179E-022
 -1.040000000000000E-002   -3.968490539028273E-022
 -1.030000000000000E-002   -5.601525965087248E-022
 -1.020000000000000E-002   -7.256122922594072E-022
 -1.010000000000000E-002   -8.801375979250039E-022
 -1.000000000000000E-002   -1.007832797457471E-021
 -9.899999999999999E-003   -1.090587963727469E-021
 -9.800000000000000E-003   -1.109028146979527E-021
 -9.699999999999999E-003   -1.043828372446523E-021
 -9.599999999999999E-003   -8.773753132361384E-022
 -9.500000000000000E-003   -5.957183546932913E-022
 -9.399999999999999E-003   -1.907121013532154E-022
 -9.299999999999999E-003    3.377864758175879E-022
 -9.200000000000000E-003    9.798430837624475E-022
 -9.099999999999999E-003    1.713699284901493E-021
 -8.999999999999999E-003    2.504584079914423E-021
 -8.900000000000000E-003    3.304314079751461E-021
 -8.799999999999999E-003    4.051904779169503E-021
 -8.699999999999999E-003    4.675376680269052E-021
 -8.600000000000000E-003    5.094884097666509E-021
 -8.499999999999999E-003    5.227211610740872E-021
 -8.399999999999999E-003    4.991587874785760E-021
 -8.300000000000000E-003    4.316638913210600E-021
 -8.199999999999999E-003    3.148183474154943E-021
 -8.100000000000000E-003    1.457437646590615E-021
 -8.000000000000000E-003   -7.509213539883460E-022
 -7.899999999999999E-003   -3.431491908420392E-021
 -7.800000000000000E-003   -6.492416009166733E-021
 -7.699999999999999E-003   -9.791940288606870E-021
 -7.599999999999999E-003   -1.313801774330368E-020
 -7.499999999999999E-003   -1.629161479839590E-020
 -7.399999999999999E-003   -1.897425166084018E-020
 -7.299999999999999E-003   -2.088010845668774E-020
 -7.199999999999999E-003   -2.169271753136588E-020
 -7.100000000000000E-003   -2.110602274784258E-020
 -6.999999999999999E-003   -1.884911736158961E-020
 -6.899999999999999E-003   -1.471366859548813E-020
 -6.800000000000000E-003   -8.582579473093525E-021
 -6.699999999999999E-003   -4.581086282489674E-022
 -6.599999999999999E-003    9.512698849477659E-021
 -6.499999999999999E-003    2.101761838236293E-020
 -6.399999999999999E-003    3.356637443701304E-020
 -6.299999999999999E-003    4.648781880117115E-020
 -6.199999999999999E-003    5.893935090292693E-020
 -6.100000000000000E-003    6.993061229017735E-020
 -5.999999999999999E-003    7.836262727425323E-020
 -5.899999999999999E-003    8.308299900561812E-020
 -5.800000000000000E-003    8.295653341444375E-020
 -5.699999999999999E-003    7.694965810823586E-020
 -5.599999999999999E-003    6.422546392210883E-020
 -5.499999999999999E-003    4.424502756827709E-020
 -5.399999999999999E-003    1.686893315024321E-020
 -5.299999999999999E-003   -1.754796763086433E-020
 -5.199999999999999E-003   -5.807701692368940E-020
 -5.099999999999999E-003   -1.031602447977554E-019
 -4.999999999999999E-003   -1.505881734696756E-019
 -4.899999999999999E-003   -1.975194414071312E-019
 -4.799999999999999E-003   -2.405500906232206E-019
 -4.699999999999999E-003   -2.758378799530365E-019
 -4.599999999999999E-003   -2.992843589475116E-019
 -4.499999999999999E-003   -3.067737664854551E-019
 -4.399999999999999E-003   -2.944634325014943E-019
 -4.299999999999999E-003   -2.591151060514692E-019
 -4.199999999999999E-003   -1.984516196030900E-019
 -4.099999999999999E-003   -1.115182260452538E-019
 -3.999999999999999E-003    9.772575806848298E-022
 -3.899999999999999E-003    1.363748260958469E-019
 -3.799999999999999E-003    2.898546437154592E-019
 -3.699999999999999E-003    4.543438927568215E-019
 -3.599999999999999E-003    6.205676700059658E-019
 -3.499999999999999E-003    7.772700382114681E-019
 -3.399999999999999E-003    9.116219875283062E-019
 -3.299999999999999E-003    1.009824223966568E-018
 -3.199999999999999E-003    1.057899415244149E-018
 -3.099999999999999E-003    1.042651129507889E-018
 -2.999999999999999E-003    9.527543075767412E-019
 -2.899999999999999E-003    7.799203136542524E-019
 -2.799999999999999E-003    5.200679012749700E-019
 -2.699999999999999E-003    1.744150707654915E-019
 -2.599999999999999E-003   -2.496015091933265E-019
 -2.499999999999999E-003   -7.376786247010526E-019
 -2.399999999999999E-003   -1.268365900840256E-018
 -2.299999999999999E-003   -1.813241176175557E-018
 -2.199999999999999E-003   -2.337610873547225E-018
 -2.099999999999999E-003   -2.801779778597592E-018
 -1.999999999999999E-003   -3.162901368917053E-018
 -1.899999999999999E-003   -3.377382729020485E-018
 -1.799999999999999E-003   -3.403767424744236E-018
 -1.699999999999999E-003   -3.205981379430638E-018
 -1.599999999999999E-003   -2.756773716398069E-018
 -1.499999999999999E-003   -2.041149231870436E-018
 -1.399999999999999E-003   -1.059551332458303E-018
 -1.299999999999999E-003    1.694688983739033E-019
 -1.199999999999999E-003    1.607363094120412E-018
 -1.099999999999999E-003    3.194742671755659E-018
 -9.999999999999989E-004    4.851809147451727E-018
 -8.999999999999990E-004    6.480241772519020E-018
 -7.999999999999990E-004    7.966657811846054E-018
 -6.999999999999989E-004    9.187665946294570E-018
 -5.999999999999990E-004    1.001644128071240E-017
 -4.999999999999989E-004    1.033062301429761E-017
 -3.999999999999989E-004    1.002122032209607E-017
 -2.999999999999989E-004    9.002102067238883E-018
 -1.999999999999989E-004    7.219536004496949E-018
 -9.999999999999892E-005    4.661138214517003E-018
  1.084202172485504E-018    1.363554590448079E-018
  1.000000000000011E-004   -2.581840482929731E-018
  2.000000000000011E-004   -7.025928215355600E-018
  3.000000000000011E-004   -1.176215352904108E-017
  4.000000000000011E-004   -1.653064905149677E-017
  5.000000000000011E-004   -2.102655411102088E-017
  6.000000000000011E-004   -2.491264348934461E-017
  7.000000000000011E-004   -2.783612475570165E-017
  8.000000000000011E-004   -2.944918514401915E-017
  9.000000000000012E-004   -2.943254614619596E-017
  1.000000000000001E-003   -2.752095607722739E-017
  1.100000000000001E-003   -2.352924544062835E-017
  1.200000000000001E-003   -1.737735271087792E-017
  1.300000000000001E-003   -9.112476457457297E-018
  1.400000000000001E-003    1.073557633299129E-018
  1.500000000000001E-003    1.283363003270259E-017
  1.600000000000001E-003    2.566312957701331E-017
  1.700000000000001E-003    3.890778181075539E-017
  1.800000000000001E-003    5.178248154622396E-017
  1.900000000000001E-003    6.340176091602567E-017
  2.000000000000001E-003    7.282166586631933E-017
  2.100000000000001E-003    7.909206871407071E-017
  2.200000000000001E-003    8.131758167070671E-017
  2.300000000000001E-003    7.872446442727995E-017
  2.400000000000001E-003    7.072990834217536E-017
  2.500000000000001E-003    5.700955923922679E-017
  2.600000000000001E-003    3.755845535964025E-017
  2.700000000000001E-003    1.274030745820015E-017
  2.800000000000001E-003   -1.667989704891121E-017
  2.900000000000001E-003   -4.952475437378299E-017
  3.000000000000001E-003   -8.421860893281388E-017
  3.100000000000001E-003   -1.188302124800110E-016
  3.200000000000001E-003   -1.511449557934662E-016
  3.300000000000001E-003   -1.787664588742861E-016
  3.400000000000001E-003   -1.992450867848833E-016
  3.500000000000001E-003   -2.102288535678022E-016
  3.600000000000001E-003   -2.096297992418938E-016
  3.700000000000001E-003   -1.957972794615592E-016
  3.800000000000001E-003   -1.676875512208642E-016
  3.900000000000001E-003   -1.250179201952288E-016
  4.000000000000001E-003   -6.839324163808468E-017
  4.100000000000001E-003    6.076519296099096E-019
  4.200000000000001E-003    7.939673969934504E-017
  4.300000000000001E-003    1.644018794593669E-016
  4.400000000000001E-003    2.511593730917559E-016
  4.500000000000001E-003    3.344766298564557E-016
  4.600000000000002E-003    4.086639816720640E-016
  4.700000000000001E-003    4.678294653598577E-016
  4.800000000000001E-003    5.062263577667652E-016
  4.900000000000002E-003    5.186372713055725E-016
  5.000000000000001E-003    5.007751616034663E-016
  5.100000000000001E-003    4.496772812873266E-016
  5.200000000000001E-003    3.640662876123872E-016
  5.300000000000002E-003    2.446507362374039E-016
  5.400000000000001E-003    9.433830535902724E-017
  5.500000000000001E-003   -8.166297933629884E-017
  5.600000000000002E-003   -2.758753190143735E-016
  5.700000000000001E-003   -4.787291871825004E-016
  5.800000000000001E-003   -6.788941779544938E-016
  5.900000000000002E-003   -8.637623155875845E-016
  6.000000000000001E-003   -1.020069709741169E-015
  6.100000000000001E-003   -1.134637237660161E-015
  6.200000000000002E-003   -1.195195533668996E-015
  6.300000000000002E-003   -1.191254510592112E-015
  6.400000000000001E-003   -1.114968312208808E-015
  6.500000000000001E-003   -9.619411640193986E-016
  6.600000000000002E-003   -7.319172666344774E-016
  6.700000000000001E-003   -4.292983093955507E-016
  6.800000000000001E-003   -6.343644334203127E-017
  6.900000000000002E-003    3.513420872760788E-016
  7.000000000000001E-003    7.960147073076768E-016
  7.100000000000001E-003    1.247460989507601E-015
  7.200000000000002E-003    1.679382326100317E-015
  7.300000000000002E-003    2.063523072049960E-015
  7.400000000000001E-003    2.371153769711264E-015
  7.500000000000001E-003    2.574756923234605E-015
  7.600000000000002E-003    2.649833256398536E-015
  7.700000000000001E-003    2.576737122341330E-015
  7.800000000000001E-003    2.342425789312282E-015
  7.900000000000001E-003    1.942011550922389E-015
  8.000000000000002E-003    1.379996426954833E-015
  8.100000000000001E-003    6.710790118503944E-016
  8.200000000000001E-003   -1.595645044084331E-016
  8.300000000000002E-003   -1.076602242531272E-015
  8.400000000000001E-003   -2.035520271312000E-015
  8.500000000000002E-003   -2.984263606792822E-015
  8.600000000000002E-003   -3.865515367215732E-015
  8.700000000000001E-003   -4.619552412243297E-015
  8.800000000000002E-003   -5.187562159699221E-015
  8.900000000000002E-003   -5.515276170104008E-015
  9.000000000000001E-003   -5.556726744013551E-015
  9.100000000000002E-003   -5.277914757049235E-015
  9.200000000000002E-003   -4.660155108920282E-015
  9.300000000000001E-003   -3.702859443219681E-015
  9.400000000000002E-003   -2.425524046584906E-015
  9.500000000000001E-003   -8.687182942122766E-016
  9.600000000000001E-003    9.060954160831937E-016
  9.700000000000002E-003    2.818020226153021E-015
  9.800000000000001E-003    4.769517286983508E-015
  9.900000000000001E-003    6.650486144813563E-015
  1.000000000000000E-002    8.343529449080981E-015
  1.010000000000000E-002    9.730198245281547E-015
  1.020000000000000E-002    1.069794144067545E-014
  1.030000000000000E-002    1.114739851934205E-014
  1.040000000000000E-002    1.099963854367614E-014
  1.050000000000000E-002    1.020288652013936E-014
  1.060000000000000E-002    8.738289357171457E-015
  1.070000000000000E-002    6.624274306631594E-015
  1.080000000000000E-002    3.919096533715768E-015
  1.090000000000000E-002    7.212586882596542E-016
  1.100000000000000E-002   -2.832434586399087E-015
  1.110000000000000E-002   -6.571288556273871E-015
  1.120000000000000E-002   -1.029754855915549E-014
  1.130000000000000E-002   -1.379547248075668E-014
  1.140000000000000E-002   -1.684230382489940E-014
  1.150000000000000E-002   -1.922065337591258E-014
  1.160000000000000E-002   -2.073167736383394E-014
  1.170000000000000E-002   -2.120835173641956E-014
  1.180000000000000E-002   -2.052804406023421E-014
  1.190000000000000E-002   -1.862359193686240E-014
  1.200000000000000E-002   -1.549210368953053E-014
  1.210000000000000E-002   -1.120077815258754E-014
  1.220000000000000E-002   -5.889136369745067E-015
  1.230000000000000E-002    2.327385153655812E-016
  1.240000000000000E-002    6.890209289585227E-015
  1.250000000000000E-002    1.375429680303040E-014
  1.260000000000000E-002    2.045589676717228E-014
  1.270000000000000E-002    2.660345537495352E-014
  1.280000000000000E-002    3.180340528824356E-014
  1.290000000000000E-002    3.568235529199143E-014
  1.300000000000000E-002    3.790997003333332E-014
  1.310000000000000E-002    3.822122777222553E-014
  1.320000000000000E-002    3.643676495532863E-014
  1.330000000000000E-002    3.248001424725906E-014
  1.340000000000000E-002    2.638988983605490E-014
  1.350000000000000E-002    1.832796552680243E-014
  1.360000000000000E-002    8.579319010959950E-015
  1.370000000000000E-002   -2.453518312776140E-015
  1.380000000000000E-002   -1.426367609489054E-014
  1.390000000000000E-002   -2.625997196414227E-014
  1.400000000000000E-002   -3.779323614090448E-014
  1.410000000000000E-002   -4.818795667900970E-014
  1.420000000000000E-002   -5.677790688319421E-014
  1.430000000000000E-002   -6.294405674602288E-014
  1.440000000000000E-002   -6.615279782623332E-014
  1.450000000000000E-002   -6.599243586928048E-014
  1.460000000000000E-002   -6.220565874070993E-014
  1.470000000000000E-002   -5.471601343466798E-014
  1.480000000000000E-002   -4.364623423824617E-014
  1.490000000000000E-002   -2.932691875600048E-014
  1.500000000000000E-002   -1.229421571198002E-014
  1.510000000000000E-002    6.724188079166719E-015
  1.520000000000000E-002    2.683486734985866E-014
  1.530000000000000E-002    4.701579499583431E-014
  1.540000000000000E-002    6.616352510396384E-014
  1.550000000000000E-002    8.314852658967387E-014
  1.560000000000000E-002    9.687629059185232E-014
  1.570000000000000E-002    1.063510129472919E-013
  1.580000000000000E-002    1.107385380338703E-013
  1.590000000000000E-002    1.094249316487770E-013
  1.600000000000000E-002    1.020669345182984E-013
  1.610000000000000E-002    8.863089569115486E-014
  1.620000000000000E-002    6.941707040703336E-014
  1.630000000000000E-002    4.506680681521637E-014
  1.640000000000000E-002    1.655095217244051E-014
  1.650000000000000E-002   -1.486115781067167E-014
  1.660000000000000E-002   -4.765175083250340E-014
  1.670000000000000E-002   -8.012230828474658E-014
  1.680000000000000E-002   -1.104759561456889E-013
  1.690000000000000E-002   -1.369111911183821E-013
  1.700000000000000E-002   -1.577220213701228E-013
  1.710000000000000E-002   -1.713995343678683E-013
  1.720000000000000E-002   -1.767288034978277E-013
  1.730000000000000E-002   -1.728756628049593E-013
  1.740000000000000E-002   -1.594574640395043E-013
  1.750000000000000E-002   -1.365929512051090E-013
  1.760000000000000E-002   -1.049270644092480E-013
  1.770000000000000E-002   -6.562770138714841E-014
  1.780000000000000E-002   -2.035305881738142E-014
  1.790000000000000E-002    2.881051711850059E-014
  1.800000000000000E-002    7.943814222078508E-014
  1.810000000000000E-002    1.288801416694526E-013
  1.820000000000000E-002    1.743949458265168E-013
  1.830000000000000E-002    2.132944630127481E-013
  1.840000000000000E-002    2.430949778880118E-013
  1.850000000000000E-002    2.616647456801204E-013
  1.860000000000000E-002    2.673606736306762E-013
  1.870000000000000E-002    2.591454098297379E-013