 -4.000000000000000E-002    0.000000000000000E+000
 -3.990000000000000E-002    0.000000000000000E+000
 -3.980000000000000E-002    0.000000000000000E+000
 -3.970000000000000E-002    0.000000000000000E+000
 -3.960000000000000E-002    0.000000000000000E+000
 -3.950000000000000E-002    0.000000000000000E+000
 -3.940000000000000E-002    0.000000000000000E+000
 -3.930000000000000E-002    0.000000000000000E+000
 -3.920000000000000E-002    0.000000000000000E+000
 -3.910000000000000E-002    0.000000000000000E+000
 -3.900000000000000E-002    0.000000000000000E+000
 -3.890000000000000E-002    0.000000000000000E+000
 -3.880000000000000E-002    0.000000000000000E+000
 -3.870000000000000E-002    0.000000000000000E+000
 -3.860000000000000E-002    0.000000000000000E+000
 -3.850000000000000E-002    0.000000000000000E+000
 -3.840000000000000E-002    0.000000000000000E+000
 -3.830000000000000E-002    0.000000000000000E+000
 -3.820000000000000E-002    0.000000000000000E+000
 -3.810000000000000E-002    0.000000000000000E+000
 -3.800000000000000E-002    0.000000000000000E+000
 -3.790000000000000E-002    0.000000000000000E+000
 -3.780000000000000E-002    0.000000000000000E+000
 -3.770000000000000E-002    0.000000000000000E+000
 -3.760000000000000E-002    0.000000000000000E+000
 -3.750000000000000E-002    0.000000000000000E+000
 -3.740000000000000E-002    0.000000000000000E+000
 -3.730000000000000E-002    0.000000000000000E+000
 -3.720000000000000E-002    0.000000000000000E+000
 -3.710000000000000E-002    0.000000000000000E+000
 -3.700000000000000E-002    0.000000000000000E+000
 -3.690000000000000E-002    0.000000000000000E+000
 -3.680000000000000E-002    0.000000000000000E+000
 -3.670000000000000E-002    0.000000000000000E+000
 -3.660000000000000E-002    0.000000000000000E+000
 -3.650000000000000E-002    0.000000000000000E+000
 -3.640000000000000E-002    0.000000000000000E+000
 -3.630000000000000E-002    0.000000000000000E+000
 -3.620000000000000E-002    0.000000000000000E+000
 -3.610000000000000E-002    0.000000000000000E+000
 -3.600000000000000E-002    0.000000000000000E+000
 -3.590000000000000E-002    0.000000000000000E+000
 -3.580000000000000E-002    0.000000000000000E+000
 -3.570000000000000E-002    0.000000000000000E+000
 -3.560000000000000E-002    0.000000000000000E+000
 -3.550000000000000E-002    0.000000000000000E+000
 -3.540000000000000E-002    0.000000000000000E+000
 -3.530000000000000E-002    0.000000000000000E+000
 -3.520000000000000E-002    0.000000000000000E+000
 -3.510000000000000E-002    0.000000000000000E+000
 -3.500000000000000E-002    0.000000000000000E+000
 -3.490000000000000E-002    0.000000000000000E+000
 -3.480000000000000E-002    0.000000000000000E+000
 -3.470000000000000E-002    0.000000000000000E+000
 -3.460000000000000E-002    0.000000000000000E+000
 -3.450000000000000E-002    0.000000000000000E+000
 -3.440000000000000E-002    0.000000000000000E+000
 -3.430000000000000E-002    0.000000000000000E+000
 -3.420000000000000E-002    0.000000000000000E+000
 -3.410000000000000E-002    0.000000000000000E+000
 -3.400000000000000E-002    0.000000000000000E+000
 -3.390000000000000E-002    0.000000000000000E+000
 -3.380000000000000E-002    0.000000000000000E+000
 -3.370000000000000E-002    0.000000000000000E+000
 -3.360000000000000E-002    0.000000000000000E+000
 -3.350000000000000E-002    0.000000000000000E+000
 -3.340000000000000E-002    0.000000000000000E+000
 -3.330000000000000E-002    0.000000000000000E+000
 -3.320000000000000E-002    0.000000000000000E+000
 -3.310000000000000E-002    0.000000000000000E+000
 -3.300000000000000E-002    0.000000000000000E+000
 -3.290000000000000E-002    0.000000000000000E+000
 -3.280000000000000E-002    0.000000000000000E+000
 -3.270000000000000E-002    0.000000000000000E+000
 -3.260000000000000E-002    0.000000000000000E+000
 -3.250000000000000E-002    0.000000000000000E+000
 -3.240000000000000E-002    0.000000000000000E+000
 -3.230000000000000E-002    0.000000000000000E+000
 -3.220000000000000E-002    0.000000000000000E+000
 -3.210000000000000E-002    0.000000000000000E+000
 -3.200000000000000E-002    0.000000000000000E+000
 -3.190000000000000E-002    0.000000000000000E+000
 -3.180000000000000E-002    0.000000000000000E+000
 -3.170000000000000E-002    0.000000000000000E+000
 -3.160000000000000E-002    0.000000000000000E+000
 -3.150000000000000E-002    0.000000000000000E+000
 -3.140000000000000E-002    0.000000000000000E+000
 -3.130000000000000E-002    0.000000000000000E+000
 -3.120000000000000E-002    0.000000000000000E+000
 -3.110000000000000E-002    0.000000000000000E+000
 -3.100000000000000E-002    0.000000000000000E+000
 -3.090000000000000E-002    0.000000000000000E+000
 -3.080000000000000E-002    0.000000000000000E+000
 -3.070000000000000E-002    0.000000000000000E+000
 -3.060000000000000E-002    0.000000000000000E+000
 -3.050000000000000E-002    0.000000000000000E+000
 -3.040000000000000E-002    0.000000000000000E+000
 -3.030000000000000E-002    0.000000000000000E+000
 -3.020000000000000E-002    0.000000000000000E+000
 -3.010000000000000E-002    0.000000000000000E+000
 -3.000000000000000E-002    0.000000000000000E+000
 -2.990000000000000E-002    0.000000000000000E+000
 -2.980000000000000E-002    0.000000000000000E+000
 -2.970000000000000E-002    0.000000000000000E+000
 -2.960000000000000E-002    0.000000000000000E+000
 -2.950000000000000E-002    0.000000000000000E+000
 -2.940000000000000E-002    0.000000000000000E+000
 -2.930000000000000E-002    0.000000000000000E+000
 -2.920000000000000E-002    0.000000000000000E+000
 -2.910000000000000E-002    0.000000000000000E+000
 -2.900000000000000E-002    0.000000000000000E+000
 -2.890000000000000E-002    0.000000000000000E+000
 -2.880000000000000E-002    0.000000000000000E+000
 -2.870000000000000E-002    0.000000000000000E+000
 -2.860000000000000E-002    0.000000000000000E+000
 -2.850000000000000E-002    0.000000000000000E+000
 -2.840000000000000E-002    0.000000000000000E+000
 -2.830000000000000E-002    0.000000000000000E+000
 -2.820000000000000E-002    0.000000000000000E+000
 -2.810000000000000E-002    0.000000000000000E+000
 -2.800000000000000E-002    0.000000000000000E+000
 -2.790000000000000E-002    0.000000000000000E+000
 -2.780000000000000E-002    0.000000000000000E+000
 -2.770000000000000E-002    0.000000000000000E+000
 -2.760000000000000E-002    0.000000000000000E+000
 -2.750000000000000E-002    0.000000000000000E+000
 -2.740000000000000E-002    0.000000000000000E+000
 -2.730000000000000E-002    0.000000000000000E+000
 -2.720000000000000E-002    0.000000000000000E+000
 -2.710000000000000E-002    0.000000000000000E+000
 -2.700000000000000E-002    0.000000000000000E+000
 -2.690000000000000E-002    0.000000000000000E+000
 -2.680000000000000E-002    0.000000000000000E+000
 -2.670000000000000E-002    0.000000000000000E+000
 -2.660000000000000E-002    0.000000000000000E+000
 -2.650000000000000E-002    0.000000000000000E+000
 -2.640000000000000E-002    0.000000000000000E+000
 -2.630000000000000E-002    0.000000000000000E+000
 -2.620000000000000E-002    0.000000000000000E+000
 -2.610000000000000E-002    0.000000000000000E+000
 -2.600000000000000E-002    0.000000000000000E+000
 -2.590000000000000E-002    0.000000000000000E+000
 -2.580000000000000E-002    0.000000000000000E+000
 -2.570000000000000E-002    0.000000000000000E+000
 -2.560000000000000E-002    0.000000000000000E+000
 -2.550000000000000E-002    0.000000000000000E+000
 -2.540000000000000E-002    0.000000000000000E+000
 -2.530000000000000E-002    2.138211768073757E-048
 -2.520000000000000E-002    4.276423536147513E-048
 -2.510000000000000E-002    4.276423536147513E-048
 -2.500000000000000E-002    4.276423536147513E-048
 -2.490000000000000E-002    2.138211768073757E-048
 -2.480000000000000E-002    0.000000000000000E+000
 -2.470000000000000E-002   -6.414635304221270E-048
 -2.460000000000000E-002   -1.496748237651630E-047
 -2.450000000000000E-002   -4.069276114484783E-047
 -2.440000000000000E-002   -1.255661598149080E-046
 -2.430000000000000E-002   -2.254737784129308E-046
 -2.420000000000000E-002   -3.845962544641287E-046
 -2.410000000000000E-002   -5.523383151390681E-046
 -2.400000000000000E-002   -7.265617486696753E-046
 -2.390000000000000E-002   -8.267363174734840E-046
 -2.380000000000000E-002   -9.054620310451086E-046
 -2.370000000000000E-002   -8.010756932539517E-046
 -2.360000000000000E-002   -3.039406843298324E-046
 -2.350000000000000E-002    6.656051231165542E-046
 -2.340000000000000E-002    1.947650710973010E-045
 -2.330000000000000E-002    3.897912861217416E-045
 -2.320000000000000E-002    6.341177302601180E-045
 -2.310000000000000E-002    9.486187405564249E-045
 -2.300000000000000E-002    1.311172935085775E-044
 -2.290000000000000E-002    1.629906719279374E-044
 -2.280000000000000E-002    1.977285929023959E-044
 -2.270000000000000E-002    2.158490757490101E-044
 -2.260000000000000E-002    2.029031637842393E-044
 -2.250000000000000E-002    1.510621445766306E-044
 -2.240000000000000E-002    3.338264934198470E-045
 -2.230000000000000E-002   -1.697658962474546E-044
 -2.220000000000000E-002   -4.774113422431651E-044
 -2.210000000000000E-002   -9.034922107632862E-044
 -2.200000000000000E-002   -1.438309945810175E-043
 -2.190000000000000E-002   -2.073031526284618E-043
 -2.180000000000000E-002   -2.755773646276717E-043
 -2.170000000000000E-002   -3.406428945818457E-043
 -2.160000000000000E-002   -3.884983269876358E-043
 -2.150000000000000E-002   -3.990094859207178E-043
 -2.140000000000000E-002   -3.474977822277084E-043
 -2.130000000000000E-002   -2.051963251089342E-043
 -2.120000000000000E-002    6.029396554341993E-044
 -2.110000000000000E-002    4.784085210268301E-043
 -2.100000000000000E-002    1.073922159153247E-042
 -2.090000000000000E-002    1.852546780150867E-042
 -2.080000000000000E-002    2.798189423853542E-042
 -2.070000000000000E-002    3.855986993173526E-042
 -2.060000000000000E-002    4.920785294419604E-042
 -2.050000000000000E-002    5.827037084848827E-042
 -2.040000000000000E-002    6.339430924800957E-042
 -2.030000000000000E-002    6.150498613470356E-042
 -2.020000000000000E-002    4.889484142278869E-042
 -2.010000000000000E-002    2.146398394868861E-042
 -2.000000000000000E-002   -2.488158232472408E-042
 -1.990000000000000E-002   -9.360448247291617E-042
 -1.980000000000000E-002   -1.866304793986686E-041
 -1.970000000000000E-002   -3.032925982867932E-041
 -1.960000000000000E-002   -4.390048160505345E-041
 -1.950000000000000E-002   -5.838634839775617E-041
 -1.940000000000000E-002   -7.213762483325583E-041
 -1.930000000000000E-002   -8.274079807023752E-041
 -1.920000000000000E-002   -8.697467811705235E-041
 -1.910000000000000E-002   -8.086655610764388E-041
 -1.900000000000000E-002   -5.987595061426937E-041
 -1.890000000000000E-002   -1.925685922939801E-041
 -1.880000000000000E-002    4.536677812580868E-041
 -1.870000000000000E-002    1.372056618465407E-040
 -1.860000000000000E-002    2.572690518659521E-040
 -1.850000000000000E-002    4.031456377996889E-040
 -1.840000000000000E-002    5.676534155005175E-040
 -1.830000000000000E-002    7.375049878136263E-040
 -1.820000000000000E-002    8.921633705148009E-040
 -1.810000000000000E-002    1.003146017826362E-039
 -1.800000000000000E-002    1.034058979030488E-039
 -1.790000000000000E-002    9.417176037485729E-040
 -1.780000000000000E-002    6.786775235261978E-040
 -1.770000000000000E-002    1.975058179432412E-040
 -1.760000000000000E-002   -5.429877857043773E-040
 -1.750000000000000E-002   -1.569495313026678E-039
 -1.740000000000000E-002   -2.884084874149643E-039
 -1.730000000000000E-002   -4.452671387450865E-039
 -1.720000000000000E-002   -6.192942350410234E-039
 -1.710000000000000E-002   -7.963015885996528E-039
 -1.700000000000000E-002   -9.552574188180474E-039
 -1.690000000000000E-002   -1.067865037359140E-038
 -1.680000000000000E-002   -1.098857225647051E-038
 -1.670000000000000E-002   -1.007277802177679E-038
 -1.660000000000000E-002   -7.490112617955530E-039
 -1.650000000000000E-002   -2.807838973148835E-039
 -1.640000000000000E-002    4.342261067115900E-039
 -1.630000000000000E-002    1.419163610532423E-038
 -1.620000000000000E-002    2.674834336132396E-038
 -1.610000000000000E-002    4.170025032781300E-038
 -1.600000000000000E-002    5.831507855571748E-038
 -1.590000000000000E-002    7.534748834081399E-038
 -1.580000000000000E-002    9.096670834594259E-038
 -1.570000000000000E-002    1.027213439769893E-037
 -1.560000000000000E-002    1.075605085006492E-037
 -1.550000000000000E-002    1.019318837170303E-037
 -1.540000000000000E-002    8.197726434614337E-038
 -1.530000000000000E-002    4.384363240036373E-038
 -1.520000000000000E-002   -1.587727491146651E-038
 -1.510000000000000E-002   -9.957665689475772E-038
 -1.500000000000000E-002   -2.079320247491917E-037
 -1.490000000000000E-002   -3.391114251231913E-037
 -1.480000000000000E-002   -4.879249143410367E-037
 -1.470000000000000E-002   -6.449946385528984E-037
 -1.460000000000000E-002   -7.960430338092630E-037
 -1.450000000000000E-002   -9.214270501562416E-037
 -1.440000000000000E-002   -9.960748692404288E-037
 -1.430000000000000E-002   -9.900026342790862E-037
 -1.420000000000000E-002   -8.696021575845592E-037
 -1.410000000000000E-002   -5.998849824760355E-037
 -1.400000000000000E-002   -1.478424505483526E-037
 -1.390000000000000E-002    5.129772094153956E-037
 -1.380000000000000E-002    1.396670420955807E-036
 -1.370000000000000E-002    2.498091438783336E-036
 -1.360000000000000E-002    3.785201330778134E-036
 -1.350000000000000E-002    5.191207257670511E-036
 -1.340000000000000E-002    6.607320530408347E-036
 -1.330000000000000E-002    7.877257593461283E-036
 -1.320000000000000E-002    8.794895909481043E-036
 -1.310000000000000E-002    9.106749441737650E-036
 -1.300000000000000E-002    8.521069429357527E-036
 -1.290000000000000E-002    6.725386750993484E-036
 -1.280000000000000E-002    3.414058434958638E-036
 -1.270000000000000E-002   -1.673136391100749E-036
 -1.260000000000000E-002   -8.701219638257538E-036
 -1.250000000000000E-002   -1.768023876324761E-035
 -1.240000000000000E-002   -2.839841386912415E-035
 -1.230000000000000E-002   -4.035327782811636E-035
 -1.220000000000000E-002   -5.268828001412776E-035
 -1.210000000000000E-002   -6.414487450770509E-035
 -1.200000000000000E-002   -7.304243987732796E-035
 -1.190000000000000E-002   -7.730019158932057E-035
 -1.180000000000000E-002   -7.451602658198803E-035
 -1.170000000000000E-002   -6.211646685849056E-035
 -1.160000000000000E-002   -3.758910746850277E-035
 -1.150000000000000E-002    1.196528665802220E-036
 -1.140000000000000E-002    5.558212242461830E-035
 -1.130000000000000E-002    1.256415799030655E-034
 -1.120000000000000E-002    2.096583352319737E-034
 -1.110000000000000E-002    3.036040748775879E-034
 -1.100000000000000E-002    4.006819196539716E-034
 -1.090000000000000E-002    4.910146908864485E-034
 -1.080000000000000E-002    5.615732528679010E-034
 -1.070000000000000E-002    5.964485291448695E-034
 -1.060000000000000E-002    5.775703808783741E-034
 -1.050000000000000E-002    4.859630808130144E-034
 -1.040000000000000E-002    3.035980141394250E-034
 -1.030000000000000E-002    1.585620637843050E-035
 -1.020000000000000E-002   -3.854541727000822E-034
 -1.010000000000000E-002   -8.986675880232988E-034
 -1.000000000000000E-002   -1.508663284314436E-033
 -9.899999999999999E-003   -2.183457878865512E-033
 -9.800000000000000E-003   -2.871459255081376E-033
 -9.699999999999999E-003   -3.499952951179538E-033
 -9.599999999999999E-003   -3.975457847706976E-033
 -9.500000000000000E-003   -4.186612412441434E-033
 -9.399999999999999E-003   -4.010197056756266E-033
 -9.299999999999999E-003   -3.320758081885608E-033
 -9.200000000000000E-003   -2.004053929545379E-033
 -9.099999999999999E-003    2.582225074182578E-035
 -8.999999999999999E-003    2.806265112807692E-033
 -8.900000000000000E-003    6.304122068404977E-033
 -8.799999999999999E-003    1.039365449824186E-032
 -8.699999999999999E-003    1.483699497603846E-032
 -8.600000000000000E-003    1.927023767233177E-032
 -8.499999999999999E-003    2.319874962341365E-032
 -8.399999999999999E-003    2.600552961643520E-032
 -8.300000000000000E-003    2.697629915466636E-032
 -8.199999999999999E-003    2.534442459341222E-032
 -8.100000000000000E-003    2.035759598953854E-032
 -8.000000000000000E-003    1.136642033510976E-032
 -7.899999999999999E-003   -2.067336495550026E-033
 -7.800000000000000E-003   -2.004811863809301E-032
 -7.699999999999999E-003   -4.221823249203847E-032
 -7.599999999999999E-003   -6.763608608061466E-032
 -7.499999999999999E-003   -9.467681315395508E-032
 -7.399999999999999E-003   -1.209739401580498E-031
 -7.299999999999999E-003   -1.434225747232977E-031
 -7.199999999999999E-003   -1.582646602583306E-031
 -7.100000000000000E-003   -1.612748001617103E-031
 -6.999999999999999E-003   -1.480600751054392E-031
 -6.899999999999999E-003   -1.144796148996182E-031
 -6.800000000000000E-003   -5.717784278124724E-032
 -6.699999999999999E-003    2.578836048307253E-032
 -6.599999999999999E-003    1.342658620080449E-031
 -6.499999999999999E-003    2.653201856554928E-031
 -6.399999999999999E-003    4.126227566369223E-031
 -6.299999999999999E-003    5.660007038556007E-031
 -6.199999999999999E-003    7.112506917758996E-031
 -6.100000000000000E-003    8.303234594905941E-031
 -5.999999999999999E-003    9.019792336164185E-031
 -5.899999999999999E-003    9.029972044574346E-031
 -5.800000000000000E-003    8.099882288957268E-031
 -5.699999999999999E-003    6.018114565836141E-031
 -5.599999999999999E-003    2.625323457698945E-031
 -5.499999999999999E-003   -2.152198541687322E-031
 -5.399999999999999E-003   -8.267235756234576E-031
 -5.299999999999999E-003   -1.551783291888438E-030
 -5.199999999999999E-003   -2.351899185472719E-030
 -5.099999999999999E-003   -3.168458617767480E-030
 -4.999999999999999E-003   -3.922459687000308E-030
 -4.899999999999999E-003   -4.516276348420788E-030
 -4.799999999999999E-003   -4.837915717715805E-030
 -4.699999999999999E-003   -4.768095449938457E-030
 -4.599999999999999E-003   -4.190279841501110E-030
 -4.499999999999999E-003   -3.003538059404191E-030
 -4.399999999999999E-003   -1.137764366275401E-030
 -4.299999999999999E-003    1.429601220663991E-030
 -4.199999999999999E-003    4.656611888581153E-030
 -4.099999999999999E-003    8.421298008707942E-030
 -3.999999999999999E-003    1.250962223920596E-029
 -3.899999999999999E-003    1.660919295356437E-029
 -3.799999999999999E-003    2.031110999270050E-029
 -3.699999999999999E-003    2.312218641552041E-029
 -3.599999999999999E-003    2.448939745061037E-029
 -3.499999999999999E-003    2.383769153431206E-029
 -3.399999999999999E-003    2.062128966592683E-029
 -3.299999999999999E-003    1.438722423790463E-029
 -3.199999999999999E-003    4.848308386924955E-030
 -3.099999999999999E-003   -8.039092266626928E-030
 -2.999999999999999E-003   -2.399893317987065E-029
 -2.899999999999999E-003   -4.236913661705804E-029
 -2.799999999999999E-003   -6.205448034459651E-029
 -2.699999999999999E-003   -8.150906950895748E-029
 -2.599999999999999E-003   -9.875851658074501E-029
 -2.499999999999999E-003   -1.114711027816597E-028
 -2.399999999999999E-003   -1.170846865839991E-028
 -2.299999999999999E-003   -1.129925987225377E-028
 -2.199999999999999E-003   -9.678675712013022E-029
 -2.099999999999999E-003   -6.655002536803939E-029
 -1.999999999999999E-003   -2.118272478853046E-029
 -1.899999999999999E-003    3.925931109650799E-029
 -1.799999999999999E-003    1.132452254177204E-028
 -1.699999999999999E-003    1.975046851316681E-028
 -1.599999999999999E-003    2.868594592797853E-028
 -1.499999999999999E-003    3.741940632893516E-028
 -1.399999999999999E-003    4.506060991738704E-028
 -1.299999999999999E-003    5.057710117437907E-028
 -1.199999999999999E-003    5.285434255007764E-028
 -1.099999999999999E-003    5.078011358549793E-028
 -9.999999999999989E-004    4.335151296538251E-028
 -8.999999999999990E-004    2.980030897413904E-028
 -7.999999999999990E-004    9.729446434232302E-029
 -6.999999999999989E-004   -1.674945122914363E-028
 -5.999999999999990E-004   -4.889048536540670E-028
 -4.999999999999989E-004   -8.521493282155020E-028
 -3.999999999999989E-004   -1.234562991764780E-027
 -2.999999999999989E-004   -1.605655476092485E-027
 -1.999999999999989E-004   -1.927916294447359E-027
 -9.999999999999892E-005   -2.158492520446909E-027
  1.084202172485504E-018   -2.251804158192957E-027
  1.000000000000011E-004   -2.163090868428451E-027
  2.000000000000011E-004   -1.852795178771297E-027
  3.000000000000011E-004   -1.291580528854174E-027
  4.000000000000011E-004   -4.656767832306118E-028
  5.000000000000011E-004    6.178664959573894E-028
  6.000000000000011E-004    1.926532247317672E-027
  7.000000000000011E-004    3.398879146165851E-027
  8.000000000000011E-004    4.942892319737599E-027
  9.000000000000012E-004    6.436744692194832E-027
  1.000000000000001E-003    7.732494308372566E-027
  1.100000000000001E-003    8.663096897702805E-027
  1.200000000000001E-003    9.052898766381907E-027
  1.300000000000001E-003    8.731492783126848E-027
  1.400000000000001E-003    7.550484253119681E-027
  1.500000000000001E-003    5.402326056006806E-027
  1.600000000000001E-003    2.240007500910468E-027
  1.700000000000001E-003   -1.904006921101017E-027
  1.800000000000001E-003   -6.901477971487089E-027
  1.900000000000001E-003   -1.251686140057732E-026
  2.000000000000001E-003   -1.840270604438556E-026
  2.100000000000001E-003   -2.410403465926764E-026
  2.200000000000001E-003   -2.907342476292055E-026
  2.300000000000001E-003   -3.269791976237238E-026
  2.400000000000001E-003   -3.433811153398810E-026
  2.500000000000001E-003   -3.337868801364260E-026
  2.600000000000001E-003   -2.928857305537819E-026
  2.700000000000001E-003   -2.168746244600915E-026
  2.800000000000001E-003   -1.041428590709696E-026
  2.900000000000001E-003    4.408066211463342E-027
  3.000000000000001E-003    2.231839003277539E-026
  3.100000000000001E-003    4.248032026585819E-026
  3.200000000000001E-003    6.367019686084014E-026
  3.300000000000001E-003    8.429628246291051E-026
  3.400000000000001E-003    1.024545617203463E-025
  3.500000000000001E-003    1.160243542969595E-025
  3.600000000000001E-003    1.228041065709831E-025
  3.700000000000001E-003    1.206842457977598E-025
  3.800000000000001E-003    1.078501057893693E-025
  3.900000000000001E-003    8.300362333152964E-026
  4.000000000000001E-003    4.558854804186891E-026
  4.100000000000001E-003   -3.999637600019259E-027
  4.200000000000001E-003   -6.424077850624094E-026
  4.300000000000001E-003   -1.323769791389114E-025
  4.400000000000001E-003   -2.043818378721874E-025
  4.500000000000001E-003   -2.750323053430810E-025
  4.600000000000002E-003   -3.380984444024508E-025
  4.700000000000001E-003   -3.866595094998899E-025
  4.800000000000001E-003   -4.135454309811479E-025
  4.900000000000002E-003   -4.118920875852757E-025
  5.000000000000001E-003   -3.757858633378794E-025
  5.100000000000001E-003   -3.009610417475316E-025
  5.200000000000001E-003   -1.855009624986192E-025
  5.300000000000002E-003   -3.048401001887097E-026
  5.400000000000001E-003    1.594919824762751E-025
  5.500000000000001E-003    3.759757929917419E-025
  5.600000000000002E-003    6.065864447290457E-025
  5.700000000000001E-003    8.352518272681965E-025
  5.800000000000001E-003    1.042804992702901E-024
  5.900000000000002E-003    1.207958862387877E-024
  6.000000000000001E-003    1.308651368475544E-024
  6.100000000000001E-003    1.323719955061838E-024
  6.200000000000002E-003    1.234829559932551E-024
  6.300000000000002E-003    1.028541122430773E-024
  6.400000000000001E-003    6.983746302044853E-025
  6.500000000000001E-003    2.466926784100253E-025
  6.600000000000002E-003   -3.137861200106795E-025
  6.700000000000001E-003   -9.590406174581329E-025
  6.800000000000001E-003   -1.653553380663533E-024
  6.900000000000002E-003   -2.351026733353051E-024
  7.000000000000001E-003   -2.996119036498318E-024
  7.100000000000001E-003   -3.527245698431235E-024
  7.200000000000002E-003   -3.880413269850023E-024
  7.300000000000002E-003   -3.993955555559856E-024
  7.400000000000001E-003   -3.813949373835937E-024
  7.500000000000001E-003   -3.299988099117276E-024
  7.600000000000002E-003   -2.430902364691549E-024
  7.700000000000001E-003   -1.209953386354879E-024
  7.800000000000001E-003    3.310243136287463E-025
  7.900000000000001E-003    2.129047370725936E-024
  8.000000000000002E-003    4.089467362025385E-024
  8.100000000000001E-003    6.087907955189962E-024
  8.200000000000001E-003    7.974932015298621E-024
  8.300000000000002E-003    9.583523327362681E-024
  8.400000000000001E-003    1.073926875145076E-023
  8.500000000000002E-003    1.127286910667312E-023
  8.600000000000002E-003    1.103437697285653E-023
  8.700000000000001E-003    9.908298394381315E-024
  8.800000000000002E-003    7.828499741225913E-024
  8.900000000000002E-003    4.791689921515364E-024
  9.000000000000001E-003    8.681737042813525E-025
  9.100000000000002E-003   -3.791431606131514E-024
  9.200000000000002E-003   -8.954694349430286E-024
  9.300000000000001E-003   -1.431204510908786E-023
  9.400000000000002E-003   -1.948823743748215E-023
  9.500000000000001E-003   -2.406077378242357E-023
  9.600000000000001E-003   -2.758492564404348E-023
  9.700000000000002E-003   -2.962441510716451E-023
  9.800000000000001E-003   -2.978622737293926E-023
  9.900000000000001E-003   -2.775745252931118E-023
  1.000000000000000E-002   -2.334161043934945E-023
  1.010000000000000E-002   -1.649154122843405E-023
  1.020000000000000E-002   -7.335798018186480E-024
  1.030000000000000E-002    3.804461804177817E-024
  1.040000000000000E-002    1.641077846968706E-023
  1.050000000000000E-002    2.977701783957236E-023
  1.060000000000000E-002    4.303465208968924E-023
  1.070000000000000E-002    5.519397959592042E-023
  1.080000000000000E-002    6.520038354151146E-023
  1.090000000000000E-002    7.200345321884405E-023
  1.100000000000000E-002    7.463548989791542E-023
  1.110000000000000E-002    7.229474823818632E-023
  1.120000000000000E-002    6.442777003055662E-023
  1.130000000000000E-002    5.080449513287902E-023
  1.140000000000000E-002    3.157957303996859E-023
  1.150000000000000E-002    7.333492867497596E-024
  1.160000000000000E-002   -2.091216910885306E-023
  1.170000000000000E-002   -5.170974947711827E-023
  1.180000000000000E-002   -8.323355107210052E-023
  1.190000000000000E-002   -1.133614764968982E-022
  1.200000000000000E-002   -1.397883841954413E-022
  1.210000000000000E-002   -1.601667645349559E-022
  1.220000000000000E-002   -1.722678128497571E-022
  1.230000000000000E-002   -1.741536329347343E-022
  1.240000000000000E-002   -1.643494412933822E-022
  1.250000000000000E-002   -1.420035369447405E-022
  1.260000000000000E-002   -1.070220887778121E-022
  1.270000000000000E-002   -6.016661038596549E-023
  1.280000000000000E-002   -3.102934446273846E-024
  1.290000000000000E-002    6.160680251890325E-023
  1.300000000000000E-002    1.305747032381987E-022
  1.310000000000000E-002    1.997217894659727E-022
  1.320000000000000E-002    2.644740496350428E-022
  1.330000000000000E-002    3.200127622080865E-022
  1.340000000000000E-002    3.615673388257102E-022
  1.350000000000000E-002    3.847351058495370E-022
  1.360000000000000E-002    3.858093677377991E-022
  1.370000000000000E-002    3.620946583115332E-022
  1.380000000000000E-002    3.121875163342902E-022
  1.390000000000000E-002    2.362016156060632E-022
  1.400000000000000E-002    1.359175458172912E-022
  1.410000000000000E-002    1.484208416237725E-023
  1.420000000000000E-002   -1.218351680790953E-022
  1.430000000000000E-002   -2.673926280749259E-022
  1.440000000000000E-002   -4.138348093928567E-022
  1.450000000000000E-002   -5.522504495618264E-022
  1.460000000000000E-002   -6.732569312504577E-022
  1.470000000000000E-002   -7.675116662088610E-022
  1.480000000000000E-002   -8.262659113414014E-022
  1.490000000000000E-002   -8.419329803151544E-022
  1.500000000000000E-002   -8.086406074420082E-022
  1.510000000000000E-002   -7.227361742721630E-022
  1.520000000000000E-002   -5.832146708944870E-022
  1.530000000000000E-002   -3.920415306054011E-022
  1.540000000000000E-002   -1.543464034349683E-022
  1.550000000000000E-002    1.215321207064507E-022
  1.560000000000000E-002    4.241638147627056E-022
  1.570000000000000E-002    7.393144268612071E-022
  1.580000000000000E-002    1.050404034798421E-021
  1.590000000000000E-002    1.339130938390959E-021
  1.600000000000000E-002    1.586248277057095E-021
  1.610000000000000E-002    1.772473940950986E-021
  1.620000000000000E-002    1.879507716052281E-021
  1.630000000000000E-002    1.891122253921648E-021
  1.640000000000000E-002    1.794288022148296E-021
  1.650000000000000E-002    1.580284681244803E-021
  1.660000000000000E-002    1.245745595065580E-021
  1.670000000000000E-002    7.935758958304077E-022
  1.680000000000000E-002    2.336774922189603E-022
  1.690000000000000E-002   -4.165840817283245E-022
  1.700000000000000E-002   -1.132241982169935E-021
  1.710000000000000E-002   -1.880982765721016E-021
  1.720000000000000E-002   -2.623851438418387E-021
  1.730000000000000E-002   -3.316447961877231E-021
  1.740000000000000E-002   -3.910640273206168E-021
  1.750000000000000E-002   -4.356787914254152E-021
  1.760000000000000E-002   -4.606438049613431E-021
  1.770000000000000E-002   -4.615418927225743E-021
  1.780000000000000E-002   -4.347211734893280E-021
  1.790000000000000E-002   -3.776438421635909E-021
  1.800000000000000E-002   -2.892260301468310E-021
  1.810000000000000E-002   -1.701449916428635E-021
  1.820000000000000E-002   -2.308677765878133E-022
  1.830000000000000E-002    1.470927864040358E-021
  1.840000000000000E-002    3.333210218865019E-021
  1.850000000000000E-002    5.263992279559594E-021
  1.860000000000000E-002    7.152495292768230E-021
  1.870000000000000E-002    8.873291935188682E-021