 -4.000000000000000E-002    0.000000000000000E+000
 -3.990000000000000E-002    0.000000000000000E+000
 -3.980000000000000E-002    0.000000000000000E+000
 -3.970000000000000E-002    0.000000000000000E+000
 -3.960000000000000E-002    0.000000000000000E+000
 -3.950000000000000E-002   -1.388071308932389E-020
 -3.940000000000000E-002   -1.319768035453774E-019
 -3.930000000000000E-002   -6.716003285047545E-019
 -3.920000000000000E-002   -2.414957275182379E-018
 -3.910000000000000E-002   -6.833597041966082E-018
 -3.900000000000000E-002   -1.604654186673265E-017
 -3.890000000000000E-002   -3.209573090881144E-017
 -3.880000000000000E-002   -5.501527082889562E-017
 -3.870000000000000E-002   -7.920168931711509E-017
 -3.860000000000000E-002   -8.783407526293757E-017
 -3.850000000000000E-002   -4.558447874549414E-017
 -3.840000000000000E-002    1.094176532968241E-016
 -3.830000000000000E-002    4.725372263925118E-016
 -3.820000000000000E-002    1.175824565243440E-015
 -3.810000000000000E-002    2.384154497201673E-015
 -3.800000000000000E-002    4.280879739524873E-015
 -3.790000000000000E-002    7.040109200860327E-015
 -3.780000000000000E-002    1.078408191095110E-014
 -3.770000000000000E-002    1.552631679917753E-014
 -3.760000000000000E-002    2.110410827986031E-014
 -3.750000000000000E-002    2.710723523278086E-014
 -3.740000000000000E-002    3.281295728952765E-014
 -3.730000000000000E-002    3.713994291142281E-014
 -3.720000000000000E-002    3.863514104340215E-014
 -3.710000000000000E-002    3.550721789617651E-014
 -3.700000000000000E-002    2.571765981967850E-014
 -3.690000000000000E-002    7.135939302900803E-015
 -3.680000000000000E-002   -2.224155166722817E-014
 -3.670000000000000E-002   -6.401735853113898E-014
 -3.660000000000000E-002   -1.190809522293431E-013
 -3.650000000000000E-002   -1.872847063061296E-013
 -3.640000000000000E-002   -2.671404734923107E-013
 -3.630000000000000E-002   -3.555737747018783E-013
 -3.620000000000000E-002   -4.477728690628124E-013
 -3.610000000000000E-002   -5.371671410298519E-013
 -3.600000000000000E-002   -6.155608071898187E-013
 -3.590000000000000E-002   -6.734373563252216E-013
 -3.580000000000000E-002   -7.004353565479585E-013
 -3.570000000000000E-002   -6.859809182334818E-013
 -3.560000000000000E-002   -6.200467579868211E-013
 -3.550000000000000E-002   -4.939932299379373E-013
 -3.540000000000000E-002   -3.014376332957824E-013
 -3.530000000000000E-002   -3.909046306564255E-014
 -3.520000000000000E-002    2.925023893054572E-013
 -3.510000000000000E-002    6.883690690364192E-013
 -3.500000000000000E-002    1.138721465733801E-012
 -3.490000000000000E-002    1.628801146878034E-012
 -3.480000000000000E-002    2.138984950890125E-012
 -3.470000000000000E-002    2.645154717861337E-012
 -3.460000000000000E-002    3.119328400160600E-012
 -3.450000000000000E-002    3.530531055441757E-012
 -3.440000000000000E-002    3.845881833955093E-012
 -3.430000000000000E-002    4.031866222628486E-012
 -3.420000000000000E-002    4.055757993223636E-012
 -3.410000000000000E-002    3.887160673657275E-012
 -3.400000000000000E-002    3.499634282209725E-012
 -3.390000000000000E-002    2.872376828741613E-012
 -3.380000000000000E-002    1.991923579276695E-012
 -3.370000000000000E-002    8.538261455783216E-013
 -3.360000000000000E-002   -5.357380754193727E-013
 -3.350000000000000E-002   -2.158488296429526E-012
 -3.340000000000000E-002   -3.982774807643449E-012
 -3.330000000000000E-002   -5.962612260395035E-012
 -3.320000000000000E-002   -8.037133612166793E-012
 -3.310000000000000E-002   -1.013057548564706E-011
 -3.300000000000000E-002   -1.215293178049982E-011
 -3.290000000000000E-002   -1.400139394653685E-011
 -3.280000000000000E-002   -1.556269230066661E-011
 -3.270000000000000E-002   -1.671641800366592E-011
 -3.260000000000000E-002   -1.733936693532863E-011
 -3.250000000000000E-002   -1.731089098086818E-011
 -3.240000000000000E-002   -1.651917712442433E-011
 -3.230000000000000E-002   -1.486829150225177E-011
 -3.220000000000000E-002   -1.228574955760294E-011
 -3.210000000000000E-002   -8.730285674380486E-012
 -3.200000000000000E-002   -4.199425650611686E-012
 -3.190000000000000E-002    1.263617928066424E-012
 -3.180000000000000E-002    7.564235370316124E-012
 -3.170000000000000E-002    1.455244504169730E-011
 -3.160000000000000E-002    2.202117063612878E-011
 -3.150000000000000E-002    2.970727323872663E-011
 -3.140000000000000E-002    3.729572908016450E-011
 -3.130000000000000E-002    4.442721822807255E-011
 -3.120000000000000E-002    5.070925911495413E-011
 -3.110000000000000E-002    5.573076271023404E-011
 -3.100000000000000E-002    5.907972875325715E-011
 -3.090000000000000E-002    6.036351595650308E-011
 -3.080000000000000E-002    5.923091863689045E-011
 -3.070000000000000E-002    5.539505991386780E-011
 -3.060000000000000E-002    4.865593942235344E-011
 -3.050000000000000E-002    3.892134737961348E-011
 -3.040000000000000E-002    2.622481593710330E-011
 -3.030000000000000E-002    1.073930267639939E-011
 -3.020000000000000E-002   -7.214616382768568E-012
 -3.010000000000000E-002   -2.716698013789087E-011
 -3.000000000000000E-002   -4.850388896763014E-011
 -2.990000000000000E-002   -7.048050306563214E-011
 -2.980000000000000E-002   -9.224155723829253E-011
 -2.970000000000000E-002   -1.128490036559746E-010
 -2.960000000000000E-002   -1.313159383426108E-010
 -2.950000000000000E-002   -1.466455535744059E-010
 -2.940000000000000E-002   -1.578736194836857E-010
 -2.930000000000000E-002   -1.641126755974550E-010
 -2.920000000000000E-002   -1.645959825556855E-010
 -2.910000000000000E-002   -1.587193140634655E-010
 -2.900000000000000E-002   -1.460785288992927E-010
 -2.890000000000000E-002   -1.265012986368448E-010
 -2.880000000000000E-002   -1.000713777912563E-010
 -2.870000000000000E-002   -6.714415409389283E-011
 -2.860000000000000E-002   -2.835277387023301E-011
 -2.850000000000000E-002    1.539588609338979E-011
 -2.840000000000000E-002    6.293530568280225E-011
 -2.830000000000000E-002    1.128634387512264E-010
 -2.820000000000000E-002    1.635761791173414E-010
 -2.810000000000000E-002    2.133095990982523E-010
 -2.800000000000000E-002    2.601897986788575E-010
 -2.790000000000000E-002    3.022894192489691E-010
 -2.780000000000000E-002    3.376893264724695E-010
 -2.770000000000000E-002    3.645442992427397E-010
 -2.760000000000000E-002    3.811510389659716E-010
 -2.750000000000000E-002    3.860169860245239E-010
 -2.740000000000000E-002    3.779279639617771E-010
 -2.730000000000000E-002    3.560128747345747E-010
 -2.720000000000000E-002    3.198029655466908E-010
 -2.710000000000000E-002    2.692835297100338E-010
 -2.700000000000000E-002    2.049351439241818E-010
 -2.690000000000000E-002    1.277620115661033E-010
 -2.680000000000000E-002    3.930457982270025E-011
 -2.670000000000000E-002   -5.836623615446939E-011
 -2.660000000000000E-002   -1.626751399904926E-010
 -2.650000000000000E-002   -2.705907834327833E-010
 -2.640000000000000E-002   -3.786968857810833E-010
 -2.630000000000000E-002   -4.832861630402072E-010
 -2.620000000000000E-002   -5.804755115524533E-010
 -2.610000000000000E-002   -6.663397042888539E-010
 -2.600000000000000E-002   -7.370594020474268E-010
 -2.590000000000000E-002   -7.890779357672128E-010
 -2.580000000000000E-002   -8.192603495751289E-010
 -2.570000000000000E-002   -8.250469702301257E-010
 -2.560000000000000E-002   -8.045936314836639E-010
 -2.550000000000000E-002   -7.568905649337213E-010
 -2.540000000000000E-002   -6.818526509296443E-010
 -2.530000000000000E-002   -5.803746816675436E-010
 -2.520000000000000E-002   -4.543470243715695E-010
 -2.510000000000000E-002   -3.066296191804512E-010
 -2.500000000000000E-002   -1.409834780105781E-010
 -2.490000000000000E-002    3.803719725648766E-011
 -2.480000000000000E-002    2.252279963004205E-010
 -2.470000000000000E-002    4.149053202340941E-010
 -2.460000000000000E-002    6.010968323322778E-010
 -2.450000000000000E-002    7.777422240773262E-010
 -2.440000000000000E-002    9.388942255358988E-010
 -2.430000000000000E-002    1.078911194488158E-009
 -2.420000000000000E-002    1.192633260993427E-009
 -2.410000000000000E-002    1.275536160155911E-009
 -2.400000000000000E-002    1.323859553510472E-009
 -2.390000000000000E-002    1.334708589453148E-009
 -2.380000000000000E-002    1.306130480435611E-009
 -2.370000000000000E-002    1.237168732614846E-009
 -2.360000000000000E-002    1.127901074634323E-009
 -2.350000000000000E-002    9.794647048774865E-010
 -2.340000000000000E-002    7.940752605311657E-010
 -2.330000000000000E-002    5.750419666155732E-010
 -2.320000000000000E-002    3.267802610890293E-010
 -2.310000000000000E-002    5.482092971613387E-011
 -2.300000000000000E-002   -2.341886760851344E-010
 -2.290000000000000E-002   -5.324990517486510E-010
 -2.280000000000000E-002   -8.312986334362691E-010
 -2.270000000000000E-002   -1.120789342233423E-009
 -2.260000000000000E-002   -1.390309987652827E-009
 -2.250000000000000E-002   -1.628518189933568E-009
 -2.240000000000000E-002   -1.823636747229154E-009
 -2.230000000000000E-002   -1.963768528598383E-009
 -2.220000000000000E-002   -2.037280091700159E-009
 -2.210000000000000E-002   -2.033242140761201E-009
 -2.200000000000000E-002   -1.941917125217403E-009
 -2.190000000000000E-002   -1.755272050829985E-009
 -2.180000000000000E-002   -1.467491891410642E-009
 -2.170000000000000E-002   -1.075466269550056E-009
 -2.160000000000000E-002   -5.792201068939679E-010
 -2.150000000000000E-002    1.774184448063473E-011
 -2.140000000000000E-002    7.081994907136915E-010
 -2.130000000000000E-002    1.481115180589062E-009
 -2.120000000000000E-002    2.321672293983909E-009
 -2.110000000000000E-002    3.211465582909974E-009
 -2.100000000000000E-002    4.128832674551005E-009
 -2.090000000000000E-002    5.049318300322918E-009
 -2.080000000000000E-002    5.946246130729332E-009
 -2.070000000000000E-002    6.791373655231375E-009
 -2.060000000000000E-002    7.555600334248927E-009
 -2.050000000000000E-002    8.209695457868493E-009
 -2.040000000000000E-002    8.725021438476441E-009
 -2.030000000000000E-002    9.074230265155633E-009
 -2.020000000000000E-002    9.231921327773746E-009
 -2.010000000000000E-002    9.175259690570610E-009
 -2.000000000000000E-002    8.884564211514776E-009
 -1.990000000000000E-002    8.343896740624549E-009
 -1.980000000000000E-002    7.541677189201817E-009
 -1.970000000000000E-002    6.471370014102655E-009
 -1.960000000000000E-002    5.132294764084658E-009
 -1.950000000000000E-002    3.530596607762215E-009
 -1.940000000000000E-002    1.680412314098204E-009
 -1.930000000000000E-002   -3.947217544011983E-010
 -1.920000000000000E-002   -2.660250228747497E-009
 -1.910000000000000E-002   -5.068749826096326E-009
 -1.900000000000000E-002   -7.557899656632598E-009
 -1.890000000000000E-002   -1.004838327090368E-008
 -1.880000000000000E-002   -1.244173517730325E-008
 -1.870000000000000E-002   -1.461834315670892E-008
 -1.860000000000000E-002   -1.643568339947503E-008
 -1.850000000000000E-002   -1.772693901651427E-008
 -1.840000000000000E-002   -1.830016785914819E-008
 -1.830000000000000E-002   -1.793813071538148E-008
 -1.820000000000000E-002   -1.639889842466052E-008
 -1.810000000000000E-002   -1.341723144713304E-008
 -1.800000000000000E-002   -8.706922608109760E-009
 -1.790000000000000E-002   -1.963857123558121E-009
 -1.780000000000000E-002    7.130100852967080E-009
 -1.770000000000000E-002    1.890271882743583E-008
 -1.760000000000000E-002    3.368646464288233E-008
 -1.750000000000000E-002    5.181346549081267E-008
 -1.740000000000000E-002    7.361051111994558E-008
 -1.730000000000000E-002    9.939440035215993E-008
 -1.720000000000000E-002    1.294677088874729E-007
 -1.710000000000000E-002    1.641154247015593E-007
 -1.700000000000000E-002    2.036025073232707E-007
 -1.690000000000000E-002    2.481725076774995E-007
 -1.680000000000000E-002    2.980472605570975E-007
 -1.670000000000000E-002    3.534276053461567E-007
 -1.660000000000000E-002    4.144950877154086E-007
 -1.650000000000000E-002    4.814146104569238E-007
 -1.640000000000000E-002    5.543375601540901E-007
 -1.630000000000000E-002    6.334054022322777E-007
 -1.620000000000000E-002    7.187535005631084E-007
 -1.610000000000000E-002    8.105148982227438E-007
 -1.600000000000000E-002    9.088238858156164E-007
 -1.590000000000000E-002    1.013819546757408E-006
 -1.580000000000000E-002    1.125648552015186E-006
 -1.570000000000000E-002    1.244468282344186E-006
 -1.560000000000000E-002    1.370448966176153E-006
 -1.550000000000000E-002    1.503776871261955E-006
 -1.540000000000000E-002    1.644656752204209E-006
 -1.530000000000000E-002    1.793314845181328E-006
 -1.520000000000000E-002    1.950003230361099E-006
 -1.510000000000000E-002    2.115003746171038E-006
 -1.500000000000000E-002    2.288633563214969E-006
 -1.490000000000000E-002    2.471251237261695E-006
 -1.480000000000000E-002    2.663263383299494E-006
 -1.470000000000000E-002    2.865131946889065E-006
 -1.460000000000000E-002    3.077381794807429E-006
 -1.450000000000000E-002    3.300607854675446E-006
 -1.440000000000000E-002    3.535482271800086E-006
 -1.430000000000000E-002    3.782759862592401E-006
 -1.420000000000000E-002    4.043282718761873E-006
 -1.410000000000000E-002    4.317982709712428E-006
 -1.400000000000000E-002    4.607883037291183E-006
 -1.390000000000000E-002    4.914095940655172E-006
 -1.380000000000000E-002    5.237820415782917E-006
 -1.370000000000000E-002    5.580336949523734E-006
 -1.360000000000000E-002    5.943000270055581E-006
 -1.350000000000000E-002    6.327233199801661E-006
 -1.340000000000000E-002    6.734516860279228E-006
 -1.330000000000000E-002    7.166384718120565E-006
 -1.320000000000000E-002    7.624413237476342E-006
 -1.310000000000000E-002    8.110217205991485E-006
 -1.300000000000000E-002    8.625445269648507E-006
 -1.290000000000000E-002    9.171777286251750E-006
 -1.280000000000000E-002    9.750926499629775E-006
 -1.270000000000000E-002    1.036463980033252E-005
 -1.260000000000000E-002    1.101470519281214E-005
 -1.250000000000000E-002    1.170295905580600E-005
 -1.240000000000000E-002    1.243129669820010E-005
 -1.230000000000000E-002    1.320167993948089E-005
 -1.220000000000000E-002    1.401615485867676E-005
 -1.210000000000000E-002    1.487686020217529E-005
 -1.200000000000000E-002    1.578604086148565E-005
 -1.190000000000000E-002    1.674606081090369E-005
 -1.180000000000000E-002    1.775941312179880E-005
 -1.170000000000000E-002    1.882873232768098E-005
 -1.160000000000000E-002    1.995679578399748E-005
 -1.150000000000000E-002    2.114654184003821E-005
 -1.140000000000000E-002    2.240106709379525E-005
 -1.130000000000000E-002    2.372363196728963E-005
 -1.120000000000000E-002    2.511766876454215E-005
 -1.110000000000000E-002    2.658678216409013E-005
 -1.100000000000000E-002    2.813474936156419E-005
 -1.090000000000000E-002    2.976552791906112E-005
 -1.080000000000000E-002    3.148325746712698E-005
 -1.070000000000000E-002    3.329226579328759E-005
 -1.060000000000000E-002    3.519706479267902E-005
 -1.050000000000000E-002    3.720237301728395E-005
 -1.040000000000000E-002    3.931311202648503E-005
 -1.030000000000000E-002    4.153440721098069E-005
 -1.020000000000000E-002    4.387161817967720E-005
 -1.010000000000000E-002    4.633032832573520E-005
 -1.000000000000000E-002    4.891637054694834E-005
 -9.899999999999999E-003    5.163582701363675E-005
 -9.800000000000000E-003    5.449505451501197E-005
 -9.699999999999999E-003    5.750068627186068E-005
 -9.599999999999999E-003    6.065964508288273E-005
 -9.500000000000000E-003    6.397916310424511E-005
 -9.399999999999999E-003    6.746678656758086E-005
 -9.299999999999999E-003    7.113039185482329E-005
 -9.200000000000000E-003    7.497819460793945E-005
 -9.099999999999999E-003    7.901876405300761E-005
 -8.999999999999999E-003    8.326101985494500E-005
 -8.900000000000000E-003    8.771426386456569E-005
 -8.799999999999999E-003    9.238816027088662E-005
 -8.699999999999999E-003    9.729277211573703E-005
 -8.600000000000000E-003    1.024385501755522E-004
 -8.499999999999999E-003    1.078363429215350E-004
 -8.399999999999999E-003    1.134973972377819E-004
 -8.300000000000000E-003    1.194333800039260E-004
 -8.199999999999999E-003    1.256563624874111E-004
 -8.100000000000000E-003    1.321788346688202E-004
 -8.000000000000000E-003    1.390137291945053E-004
 -7.899999999999999E-003    1.461744012945975E-004
 -7.800000000000000E-003    1.536746481964759E-004
 -7.699999999999999E-003    1.615287447643989E-004
 -7.599999999999999E-003    1.697514146531696E-004
 -7.499999999999999E-003    1.783578746441755E-004
 -7.399999999999999E-003    1.873638566967859E-004
 -7.299999999999999E-003    1.967855958519527E-004
 -7.199999999999999E-003    2.066399102155825E-004
 -7.100000000000000E-003    2.169441585078044E-004
 -6.999999999999999E-003    2.277163213631598E-004
 -6.899999999999999E-003    2.389750164006160E-004
 -6.800000000000000E-003    2.507394880478314E-004
 -6.699999999999999E-003    2.630296882622260E-004
 -6.599999999999999E-003    2.758662645531120E-004
 -6.499999999999999E-003    2.892706000962753E-004
 -6.399999999999999E-003    3.032648408935080E-004
 -6.299999999999999E-003    3.178719263290240E-004
 -6.199999999999999E-003    3.331155521517949E-004
 -6.100000000000000E-003    3.490202771224782E-004
 -5.999999999999999E-003    3.656114242480727E-004
 -5.899999999999999E-003    3.829152022236744E-004
 -5.800000000000000E-003    4.009586127337560E-004
 -5.699999999999999E-003    4.197695695848210E-004
 -5.599999999999999E-003    4.393768135973862E-004
 -5.499999999999999E-003    4.598099337030488E-004
 -5.399999999999999E-003    4.810993713989617E-004
 -5.299999999999999E-003    5.032764610838755E-004
 -5.199999999999999E-003    5.263733781114101E-004
 -5.099999999999999E-003    5.504231235860827E-004
 -4.999999999999999E-003    5.754596455449795E-004
 -4.899999999999999E-003    6.015176947977399E-004
 -4.799999999999999E-003    6.286329040244641E-004
 -4.699999999999999E-003    6.568417924221959E-004
 -4.599999999999999E-003    6.861817761581220E-004
 -4.499999999999999E-003    7.166911009422655E-004
 -4.399999999999999E-003    7.484089685609035E-004
 -4.299999999999999E-003    7.813754431341116E-004
 -4.199999999999999E-003    8.156316013340507E-004
 -4.099999999999999E-003    8.512193389731795E-004
 -3.999999999999999E-003    8.881816827731916E-004
 -3.899999999999999E-003    9.265624718307117E-004
 -3.799999999999999E-003    9.664067026941885E-004
 -3.699999999999999E-003    1.007760369054716E-003
 -3.599999999999999E-003    1.050670582520363E-003
 -3.499999999999999E-003    1.095185461510184E-003
 -3.399999999999999E-003    1.141354281668478E-003
 -3.299999999999999E-003    1.189227472144834E-003
 -3.199999999999999E-003    1.238856517330950E-003
 -3.099999999999999E-003    1.290294191976049E-003
 -2.999999999999999E-003    1.343594224541078E-003
 -2.899999999999999E-003    1.398811618742340E-003
 -2.799999999999999E-003    1.456002336149664E-003
 -2.699999999999999E-003    1.515223637425333E-003
 -2.599999999999999E-003    1.576533613619854E-003
 -2.499999999999999E-003    1.639991477318135E-003
 -2.399999999999999E-003    1.705657371862651E-003
 -2.299999999999999E-003    1.773592392658114E-003
 -2.199999999999999E-003    1.843858579651509E-003
 -2.099999999999999E-003    1.916518835887397E-003
 -1.999999999999999E-003    1.991636826267503E-003
 -1.899999999999999E-003    2.069277027310749E-003
 -1.799999999999999E-003    2.149504757689124E-003
 -1.699999999999999E-003    2.232386002709907E-003
 -1.599999999999999E-003    2.317987505687508E-003
 -1.499999999999999E-003    2.406376667495843E-003
 -1.399999999999999E-003    2.497621707131015E-003
 -1.299999999999999E-003    2.591791441732712E-003
 -1.199999999999999E-003    2.688955249984895E-003
 -1.099999999999999E-003    2.789183230412323E-003
 -9.999999999999989E-004    2.892546133588544E-003
 -8.999999999999990E-004    2.999114961928269E-003
 -7.999999999999990E-004    3.108961887096065E-003
 -6.999999999999989E-004    3.222158965840003E-003
 -5.999999999999990E-004    3.338778900539889E-003
 -4.999999999999989E-004    3.458894424108021E-003
 -3.999999999999989E-004    3.582579250325024E-003
 -2.999999999999989E-004    3.709906772894988E-003
 -1.999999999999989E-004    3.840950666208866E-003
 -9.999999999999892E-005    3.975784943405709E-003
  1.084202172485504E-018    4.114483193985893E-003
  1.000000000000011E-004    4.257119125016647E-003
  2.000000000000011E-004    4.403766347335923E-003
  3.000000000000011E-004    4.554497955174952E-003
  4.000000000000011E-004    4.709386940738365E-003
  5.000000000000011E-004    4.868506141614976E-003
  6.000000000000011E-004    5.031926866334314E-003
  7.000000000000011E-004    5.199721074135303E-003
  8.000000000000011E-004    5.371958933316838E-003
  9.000000000000012E-004    5.548710836652111E-003
  1.000000000000001E-003    5.730045200661915E-003
  1.100000000000001E-003    5.916029930677857E-003
  1.200000000000001E-003    6.106732168694300E-003
  1.300000000000001E-003    6.302216491276959E-003
  1.400000000000001E-003    6.502547243024681E-003
  1.500000000000001E-003    6.707787327526208E-003
  1.600000000000001E-003    6.917997009187641E-003
  1.700000000000001E-003    7.133235349916602E-003
  1.800000000000001E-003    7.353559267389512E-003
  1.900000000000001E-003    7.579024156133402E-003
  2.000000000000001E-003    7.809682662683552E-003
  2.100000000000001E-003    8.045585066126015E-003
  2.200000000000001E-003    8.286779804417164E-003
  2.300000000000001E-003    8.533312168090468E-003
  2.400000000000001E-003    8.785225282143289E-003
  2.500000000000001E-003    9.042557995810113E-003
  2.600000000000001E-003    9.305348643965710E-003
  2.700000000000001E-003    9.573630128655452E-003
  2.800000000000001E-003    9.847432638371970E-003
  2.900000000000001E-003    1.012678370244352E-002
  3.000000000000001E-003    1.041170714118731E-002
  3.100000000000001E-003    1.070222188353892E-002
  3.200000000000001E-003    1.099834456831791E-002
  3.300000000000001E-003    1.130008665189352E-002
  3.400000000000001E-003    1.160745476752435E-002
  3.500000000000001E-003    1.192045285760240E-002
  3.600000000000001E-003    1.223907854379405E-002
  3.700000000000001E-003    1.256332595134351E-002
  3.800000000000001E-003    1.289318339149603E-002
  3.900000000000001E-003    1.322863532150233E-002
  4.000000000000001E-003    1.356965857545494E-002
  4.100000000000001E-003    1.391622622683151E-002
  4.200000000000001E-003    1.426830566620974E-002
  4.300000000000001E-003    1.462585694666375E-002
  4.400000000000001E-003    1.498883603729678E-002
  4.500000000000001E-003    1.535719132730822E-002
  4.600000000000002E-003    1.573086547807782E-002
  4.700000000000001E-003    1.610979395692394E-002
  4.800000000000001E-003    1.649390584469283E-002
  4.900000000000002E-003    1.688312336654423E-002
  5.000000000000001E-003    1.727736169071683E-002
  5.100000000000001E-003    1.767652924464526E-002
  5.200000000000001E-003    1.808052601961346E-002
  5.300000000000002E-003    1.848924615020445E-002
  5.400000000000001E-003    1.890257481631263E-002
  5.500000000000001E-003    1.932039029857781E-002
  5.600000000000002E-003    1.974256358931927E-002
  5.700000000000001E-003    2.016895661784748E-002
  5.800000000000001E-003    2.059942330660805E-002
  5.900000000000002E-003    2.103380918727282E-002
  6.000000000000001E-003    2.147195084857048E-002
  6.100000000000001E-003    2.191367989173264E-002
  6.200000000000002E-003    2.235881673456601E-002
  6.300000000000002E-003    2.280717406389644E-002
  6.400000000000001E-003    2.325855344622358E-002
  6.500000000000001E-003    2.371275209573122E-002
  6.600000000000002E-003    2.416955399059787E-002
  6.700000000000001E-003    2.462873666568970E-002
  6.800000000000001E-003    2.509007072337659E-002
  6.900000000000002E-003    2.555331254455136E-002
  7.000000000000001E-003    2.601821331119095E-002
  7.100000000000001E-003    2.648451422510966E-002
  7.200000000000002E-003    2.695194848506178E-002
  7.300000000000002E-003    2.742023645144366E-002
  7.400000000000001E-003    2.788909311540538E-002
  7.500000000000001E-003    2.835822458060911E-002
  7.600000000000002E-003    2.882732381162704E-002
  7.700000000000001E-003    2.929607863478269E-002
  7.800000000000001E-003    2.976416641758692E-002
  7.900000000000001E-003    3.023125592995458E-002
  8.000000000000002E-003    3.069700680134090E-002
  8.100000000000001E-003    3.116106984950127E-002
  8.200000000000001E-003    3.162308608121742E-002
  8.300000000000002E-003    3.208269127197513E-002
  8.400000000000001E-003    3.253950895956122E-002
  8.500000000000002E-003    3.299315358308480E-002
  8.600000000000002E-003    3.344323870157438E-002
  8.700000000000001E-003    3.388936413707355E-002
  8.800000000000002E-003    3.433112271493596E-002
  8.900000000000002E-003    3.476809760621934E-002
  9.000000000000001E-003    3.519987097409514E-002
  9.100000000000002E-003    3.562600790359380E-002
  9.200000000000002E-003    3.604607883370842E-002
  9.300000000000001E-003    3.645964110575028E-002
  9.400000000000002E-003    3.686624308756752E-002
  9.500000000000001E-003    3.726543035666719E-002
  9.600000000000001E-003    3.765674491692087E-002
  9.700000000000002E-003    3.803971700824229E-002
  9.800000000000001E-003    3.841387829493959E-002
  9.900000000000001E-003    3.877874959507535E-002
  1.000000000000000E-002    3.913385433408066E-002
  1.010000000000000E-002    3.947870523739240E-002
  1.020000000000000E-002    3.981281536371357E-002
  1.030000000000000E-002    4.013569389337174E-002
  1.040000000000000E-002    4.044684510485956E-002
  1.050000000000000E-002    4.074576913792523E-002
  1.060000000000000E-002    4.103197038391530E-002
  1.070000000000000E-002    4.130494629657877E-002
  1.080000000000000E-002    4.156419560300650E-002
  1.090000000000000E-002    4.180921519315462E-002
  1.100000000000000E-002    4.203949994023991E-002
  1.110000000000000E-002    4.225454880589185E-002
  1.120000000000000E-002    4.245386032586144E-002
  1.130000000000000E-002    4.263693040737233E-002
  1.140000000000000E-002    4.280325901188649E-002
  1.150000000000000E-002    4.295235209532724E-002
  1.160000000000000E-002    4.308371482847467E-002
  1.170000000000000E-002    4.319685519229805E-002
  1.180000000000000E-002    4.329128773676819E-002
  1.190000000000000E-002    4.336652859555740E-002
  1.200000000000000E-002    4.342210491342979E-002
  1.210000000000000E-002    4.345754325668236E-002
  1.220000000000000E-002    4.347238118148172E-002
  1.230000000000000E-002    4.346615774315319E-002
  1.240000000000000E-002    4.343842261296115E-002
  1.250000000000000E-002    4.338873585326868E-002
  1.260000000000000E-002    4.331666526231285E-002
  1.270000000000000E-002    4.322178658177855E-002
  1.280000000000000E-002    4.310368525229342E-002
  1.290000000000000E-002    4.296195532070328E-002
  1.300000000000000E-002    4.279620590584364E-002
  1.310000000000000E-002    4.260605749794050E-002
  1.320000000000000E-002    4.239114090002832E-002
  1.330000000000000E-002    4.215110099137179E-002
  1.340000000000000E-002    4.188559424628883E-002
  1.350000000000000E-002    4.159429354973380E-002
  1.360000000000000E-002    4.127688335186927E-002
  1.370000000000000E-002    4.093306585112165E-002
  1.380000000000000E-002    4.056255828637810E-002
  1.390000000000000E-002    4.016509454756722E-002
  1.400000000000000E-002    3.974042265047990E-002
  1.410000000000000E-002    3.928831029400740E-002
  1.420000000000000E-002    3.880854418307791E-002
  1.430000000000000E-002    3.830092762600517E-002
  1.440000000000000E-002    3.776527952234368E-002
  1.450000000000000E-002    3.720144376528061E-002
  1.460000000000000E-002    3.660928371132387E-002
  1.470000000000000E-002    3.598867913827054E-002
  1.480000000000000E-002    3.533953545707075E-002
  1.490000000000000E-002    3.466177283953124E-002
  1.500000000000000E-002    3.395533737985351E-002
  1.510000000000000E-002    3.322019665519603E-002
  1.520000000000000E-002    3.245633814995341E-002
  1.530000000000000E-002    3.166377634827896E-002
  1.540000000000000E-002    3.084254561962792E-002
  1.550000000000000E-002    2.999270354135868E-002
  1.560000000000000E-002    2.911433202644524E-002
  1.570000000000000E-002    2.820753529114026E-002
  1.580000000000000E-002    2.727244203462751E-002
  1.590000000000000E-002    2.630920373119736E-002
  1.600000000000000E-002    2.531799951906295E-002
  1.610000000000000E-002    2.429902803130413E-002
  1.620000000000000E-002    2.325251650082150E-002
  1.630000000000000E-002    2.217871461721071E-002
  1.640000000000000E-002    2.107789668390566E-002
  1.650000000000000E-002    1.995036141168400E-002
  1.660000000000000E-002    1.879643099013357E-002
  1.670000000000000E-002    1.761645431001935E-002
  1.680000000000000E-002    1.641080152078266E-002
  1.690000000000000E-002    1.517986954494914E-002
  1.700000000000000E-002    1.392407677379396E-002
  1.710000000000000E-002    1.264386816764810E-002
  1.720000000000000E-002    1.133970999699216E-002
  1.730000000000000E-002    1.001209327675854E-002
  1.740000000000000E-002    8.661531932742403E-003
  1.750000000000000E-002    7.288562008897831E-003
  1.760000000000000E-002    5.893743498241198E-003
  1.770000000000000E-002    4.477656899468722E-003
  1.780000000000000E-002    3.040905909990201E-003
  1.790000000000000E-002    1.584114599217453E-003
  1.800000000000000E-002    1.079283139146386E-004
  1.810000000000000E-002   -1.386988104318129E-003
  1.820000000000000E-002   -2.899949101292325E-003
  1.830000000000000E-002   -4.430250720318109E-003
  1.840000000000000E-002   -5.977170349708578E-003
  1.850000000000000E-002   -7.539967540080747E-003
  1.860000000000000E-002   -9.117883992440264E-003
  1.870000000000000E-002   -1.071014588962062E-002