 -4.000000000000000E-002    0.000000000000000E+000
 -3.990000000000000E-002    0.000000000000000E+000
 -3.980000000000000E-002    0.000000000000000E+000
 -3.970000000000000E-002    0.000000000000000E+000
 -3.960000000000000E-002    0.000000000000000E+000
 -3.950000000000000E-002    0.000000000000000E+000
 -3.940000000000000E-002    0.000000000000000E+000
 -3.930000000000000E-002    0.000000000000000E+000
 -3.920000000000000E-002    0.000000000000000E+000
 -3.910000000000000E-002    0.000000000000000E+000
 -3.900000000000000E-002    0.000000000000000E+000
 -3.890000000000000E-002    0.000000000000000E+000
 -3.880000000000000E-002    0.000000000000000E+000
 -3.870000000000000E-002    0.000000000000000E+000
 -3.860000000000000E-002    0.000000000000000E+000
 -3.850000000000000E-002    0.000000000000000E+000
 -3.840000000000000E-002    0.000000000000000E+000
 -3.830000000000000E-002    0.000000000000000E+000
 -3.820000000000000E-002    0.000000000000000E+000
 -3.810000000000000E-002    0.000000000000000E+000
 -3.800000000000000E-002    0.000000000000000E+000
 -3.790000000000000E-002    0.000000000000000E+000
 -3.780000000000000E-002    0.000000000000000E+000
 -3.770000000000000E-002    0.000000000000000E+000
 -3.760000000000000E-002    0.000000000000000E+000
 -3.750000000000000E-002    0.000000000000000E+000
 -3.740000000000000E-002    0.000000000000000E+000
 -3.730000000000000E-002    0.000000000000000E+000
 -3.720000000000000E-002    0.000000000000000E+000
 -3.710000000000000E-002    0.000000000000000E+000
 -3.700000000000000E-002    0.000000000000000E+000
 -3.690000000000000E-002    0.000000000000000E+000
 -3.680000000000000E-002    0.000000000000000E+000
 -3.670000000000000E-002    0.000000000000000E+000
 -3.660000000000000E-002    0.000000000000000E+000
 -3.650000000000000E-002    0.000000000000000E+000
 -3.640000000000000E-002    0.000000000000000E+000
 -3.630000000000000E-002    0.000000000000000E+000
 -3.620000000000000E-002    0.000000000000000E+000
 -3.610000000000000E-002    0.000000000000000E+000
 -3.600000000000000E-002    0.000000000000000E+000
 -3.590000000000000E-002    0.000000000000000E+000
 -3.580000000000000E-002    0.000000000000000E+000
 -3.570000000000000E-002    0.000000000000000E+000
 -3.560000000000000E-002    0.000000000000000E+000
 -3.550000000000000E-002    0.000000000000000E+000
 -3.540000000000000E-002    0.000000000000000E+000
 -3.530000000000000E-002    0.000000000000000E+000
 -3.520000000000000E-002    0.000000000000000E+000
 -3.510000000000000E-002    0.000000000000000E+000
 -3.500000000000000E-002    0.000000000000000E+000
 -3.490000000000000E-002    0.000000000000000E+000
 -3.480000000000000E-002    0.000000000000000E+000
 -3.470000000000000E-002    0.000000000000000E+000
 -3.460000000000000E-002    6.414635304221270E-048
 -3.450000000000000E-002    1.836587823550677E-046
 -3.440000000000000E-002    3.160004822763652E-046
 -3.430000000000000E-002    6.255863292485091E-046
 -3.420000000000000E-002    1.073928511446172E-045
 -3.410000000000000E-002    1.735436798398320E-045
 -3.400000000000000E-002    2.809726214646660E-045
 -3.390000000000000E-002    4.110211218912268E-045
 -3.380000000000000E-002    4.207504519826857E-045
 -3.370000000000000E-002    3.704709340561994E-045
 -3.360000000000000E-002   -1.141070945611562E-045
 -3.350000000000000E-002   -1.348923158553399E-044
 -3.340000000000000E-002   -4.225936340545555E-044
 -3.330000000000000E-002   -9.921691159734883E-044
 -3.320000000000000E-002   -2.011353671285469E-043
 -3.310000000000000E-002   -3.696065296372477E-043
 -3.300000000000000E-002   -6.284982871309789E-043
 -3.290000000000000E-002   -9.956398791550850E-043
 -3.280000000000000E-002   -1.468064057147705E-042
 -3.270000000000000E-002   -1.985275667490493E-042
 -3.260000000000000E-002   -2.383408378126585E-042
 -3.250000000000000E-002   -2.322295296860438E-042
 -3.240000000000000E-002   -1.180754111557227E-042
 -3.230000000000000E-002    2.057226017389679E-042
 -3.220000000000000E-002    8.914774267364038E-042
 -3.210000000000000E-002    2.148622461252781E-041
 -3.200000000000000E-002    4.235742919504076E-041
 -3.190000000000000E-002    7.426135069682306E-041
 -3.180000000000000E-002    1.192718009521390E-040
 -3.170000000000000E-002    1.773061695903827E-040
 -3.160000000000000E-002    2.436567789350555E-040
 -3.150000000000000E-002    3.053289416090866E-040
 -3.140000000000000E-002    3.360814007740060E-040
 -3.130000000000000E-002    2.903820282612125E-040
 -3.120000000000000E-002    9.704541702814580E-041
 -3.110000000000000E-002   -3.458064934172623E-040
 -3.100000000000000E-002   -1.171617728919746E-039
 -3.090000000000000E-002   -2.537660301893380E-039
 -3.080000000000000E-002   -4.602515019451131E-039
 -3.070000000000000E-002   -7.480893293114245E-039
 -3.060000000000000E-002   -1.116694658963547E-038
 -3.050000000000000E-002   -1.541773326223986E-038
 -3.040000000000000E-002   -1.959176986775320E-038
 -3.030000000000000E-002   -2.244518010309630E-038
 -3.020000000000000E-002   -2.190152969173392E-038
 -3.010000000000000E-002   -1.483270682396958E-038
 -3.000000000000000E-002    3.081802508627226E-039
 -2.990000000000000E-002    3.731139518709027E-038
 -2.980000000000000E-002    9.409649362457532E-038
 -2.970000000000000E-002    1.795423455542213E-037
 -2.960000000000000E-002    2.979584043730094E-037
 -2.950000000000000E-002    4.492142811296941E-037
 -2.940000000000000E-002    6.249341893169425E-037
 -2.930000000000000E-002    8.034873993225984E-037
 -2.920000000000000E-002    9.439873232903694E-037
 -2.910000000000000E-002    9.799205475707678E-037
 -2.900000000000000E-002    8.136130252442404E-037
 -2.890000000000000E-002    3.135012542418958E-037
 -2.880000000000000E-002   -6.829266711274800E-037
 -2.870000000000000E-002   -2.356733219345592E-036
 -2.860000000000000E-002   -4.881130648226187E-036
 -2.850000000000000E-002   -8.376236436138108E-036
 -2.840000000000000E-002   -1.284072131272998E-035
 -2.830000000000000E-002   -1.805805961146480E-035
 -2.820000000000000E-002   -2.347900751499101E-035
 -2.810000000000000E-002   -2.808837073404233E-035
 -2.800000000000000E-002   -3.027340070037417E-035
 -2.790000000000000E-002   -2.772329152562104E-035
 -2.780000000000000E-002   -1.740354958669034E-035
 -2.770000000000000E-002    4.336045577510606E-036
 -2.760000000000000E-002    4.144843631838044E-035
 -2.750000000000000E-002    9.759334291082880E-035
 -2.740000000000000E-002    1.751860486302291E-034
 -2.730000000000000E-002    2.740426338079954E-034
 -2.720000000000000E-002    3.896233211154345E-034
 -2.710000000000000E-002    5.109575778031629E-034
 -2.700000000000000E-002    6.184521659624218E-034
 -2.690000000000000E-002    6.819361477820618E-034
 -2.680000000000000E-002    6.594743063306367E-034
 -2.670000000000000E-002    4.976652450891209E-034
 -2.660000000000000E-002    1.342984485684833E-034
 -2.650000000000000E-002   -4.956687948372561E-034
 -2.640000000000000E-002   -1.449897643911577E-033
 -2.630000000000000E-002   -2.763541690135881E-033
 -2.620000000000000E-002   -4.429040745528073E-033
 -2.610000000000000E-002   -6.371492956273048E-033
 -2.600000000000000E-002   -8.421438254566267E-033
 -2.590000000000000E-002   -1.028838553588556E-032
 -2.580000000000000E-002   -1.154014521912954E-032
 -2.570000000000000E-002   -1.159479969317145E-032
 -2.560000000000000E-002   -9.733690735548717E-033
 -2.550000000000000E-002   -5.144701869532188E-033
 -2.540000000000000E-002    2.995076565635942E-033
 -2.530000000000000E-002    1.539003186329257E-032
 -2.520000000000000E-002    3.244673774161676E-032
 -2.510000000000000E-002    5.404782091117829E-032
 -2.500000000000000E-002    7.929122112344806E-032
 -2.490000000000000E-002    1.062186565433406E-031
 -2.480000000000000E-002    1.315704471601497E-031
 -2.470000000000000E-002    1.506176413670313E-031
 -2.460000000000000E-002    1.571348367417718E-031
 -2.450000000000000E-002    1.435854464468491E-031
 -2.440000000000000E-002    1.015927028447621E-031
 -2.430000000000000E-002    2.276095199510345E-032
 -2.420000000000000E-002   -1.001101854670434E-031
 -2.410000000000000E-002   -2.714138427056583E-031
 -2.400000000000000E-002   -4.907756355327128E-031
 -2.390000000000000E-002   -7.508651036766313E-031
 -2.380000000000000E-002   -1.035182296592550E-030
 -2.370000000000000E-002   -1.316113003936947E-030
 -2.360000000000000E-002   -1.553633031609765E-030
 -2.350000000000000E-002   -1.695114342051508E-030
 -2.340000000000000E-002   -1.676726842564856E-030
 -2.330000000000000E-002   -1.426923617799560E-030
 -2.320000000000000E-002   -8.724271514299012E-031
 -2.310000000000000E-002    5.301749809052215E-032
 -2.300000000000000E-002    1.397097091293023E-030
 -2.290000000000000E-002    3.174906240063062E-030
 -2.280000000000000E-002    5.353187386948428E-030
 -2.270000000000000E-002    7.834081136580155E-030
 -2.260000000000000E-002    1.044017947586580E-029
 -2.250000000000000E-002    1.290321686785232E-029
 -2.240000000000000E-002    1.485921145331996E-029
 -2.230000000000000E-002    1.585319008264058E-029
 -2.220000000000000E-002    1.535672744455546E-029
 -2.210000000000000E-002    1.280127290190274E-029
 -2.200000000000000E-002    7.629548177077843E-030
 -2.190000000000000E-002   -6.339118994170105E-031
 -2.180000000000000E-002   -1.229382959363397E-029
 -2.170000000000000E-002   -2.738002578867282E-029
 -2.160000000000000E-002   -4.553422447359096E-029
 -2.150000000000000E-002   -6.589743429715546E-029
 -2.140000000000000E-002   -8.701123447665947E-029
 -2.130000000000000E-002   -1.067498637746541E-028
 -2.120000000000000E-002   -1.223029599623069E-028
 -2.110000000000000E-002   -1.302306995981564E-028
 -2.100000000000000E-002   -1.266129942344069E-028
 -2.090000000000000E-002   -1.073117731728089E-028
 -2.080000000000000E-002   -6.835958060557764E-029
 -2.070000000000000E-002   -6.477797009158508E-030
 -2.060000000000000E-002    8.028602488231777E-029
 -2.050000000000000E-002    1.918305022851688E-028
 -2.040000000000000E-002    3.252325169173078E-028
 -2.030000000000000E-002    4.740133704896691E-028
 -2.020000000000000E-002    6.275368376726266E-028
 -2.010000000000000E-002    7.706581081545630E-028
 -2.000000000000000E-002    8.837576459298702E-028
 -1.990000000000000E-002    9.432974218676696E-028
 -1.980000000000000E-002    9.230265594326526E-028
 -1.970000000000000E-002    7.959329522954835E-028
 -1.960000000000000E-002    5.369845444957435E-028
 -1.950000000000000E-002    1.266279677904984E-028
 -1.940000000000000E-002   -4.450886884171720E-028
 -1.930000000000000E-002   -1.174021036158492E-027
 -1.920000000000000E-002   -2.037444288986366E-027
 -1.910000000000000E-002   -2.990095091031629E-027
 -1.900000000000000E-002   -3.961367863078230E-027
 -1.890000000000000E-002   -4.854377277302926E-027
 -1.880000000000000E-002   -5.547622088761747E-027
 -1.870000000000000E-002   -5.899932452855685E-027
 -1.860000000000000E-002   -5.759239088783799E-027
 -1.850000000000000E-002   -4.975438409289627E-027
 -1.840000000000000E-002   -3.417258715557402E-027
 -1.830000000000000E-002   -9.925509237730601E-028
 -1.820000000000000E-002    2.329145107496341E-027
 -1.810000000000000E-002    6.493519318169252E-027
 -1.800000000000000E-002    1.134027316318620E-026
 -1.790000000000000E-002    1.658667168630105E-026
 -1.780000000000000E-002    2.181914260792324E-026
 -1.770000000000000E-002    2.649632043921790E-026
 -1.760000000000000E-002    2.996671027316227E-026
 -1.750000000000000E-002    3.150350007319818E-026
 -1.740000000000000E-002    3.035794004693270E-026
 -1.730000000000000E-002    2.583111561847857E-026
 -1.720000000000000E-002    1.736189373606504E-026
 -1.710000000000000E-002    4.626422395955279E-027
 -1.700000000000000E-002   -1.235801816911950E-026
 -1.690000000000000E-002   -3.313457177563468E-026
 -1.680000000000000E-002   -5.672575574212609E-026
 -1.670000000000000E-002   -8.158334573676627E-026
 -1.660000000000000E-002   -1.055833549064849E-025
 -1.650000000000000E-002   -1.260794010345514E-025
 -1.640000000000000E-002   -1.400254404294787E-025
 -1.630000000000000E-002   -1.441745018514003E-025
 -1.620000000000000E-002   -1.353540740500853E-025
 -1.610000000000000E-002   -1.108108149066719E-025
 -1.600000000000000E-002   -6.860816449253168E-026
 -1.590000000000000E-002   -8.050365742568439E-027
 -1.580000000000000E-002    6.990349585432086E-026
 -1.570000000000000E-002    1.622806978070611E-025
 -1.560000000000000E-002    2.638431981916303E-025
 -1.550000000000000E-002    3.669977683409165E-025
 -1.540000000000000E-002    4.619209663699525E-025
 -1.530000000000000E-002    5.369443286853876E-025
 -1.520000000000000E-002    5.792307598122666E-025
 -1.510000000000000E-002    5.757518036644255E-025
 -1.500000000000000E-002    5.145483667783666E-025
 -1.490000000000000E-002    3.862233785812117E-025
 -1.480000000000000E-002    1.855791120527310E-025
 -1.470000000000000E-002   -8.672654983023233E-026
 -1.460000000000000E-002   -4.226649707741620E-025
 -1.450000000000000E-002   -8.056515368218917E-025
 -1.440000000000000E-002   -1.209896416083907E-024
 -1.430000000000000E-002   -1.600498708249164E-024
 -1.420000000000000E-002   -1.934473588744586E-024
 -1.410000000000000E-002   -2.162860433048900E-024
 -1.400000000000000E-002   -2.233994368364610E-024
 -1.390000000000000E-002   -2.097930829193704E-024
 -1.380000000000000E-002   -1.711899838692865E-024
 -1.370000000000000E-002   -1.046532653398494E-024
 -1.360000000000000E-002   -9.245896553904363E-026
 -1.350000000000000E-002    1.133266297659869E-024
 -1.340000000000000E-002    2.581583218221437E-024
 -1.330000000000000E-002    4.167464658082806E-024
 -1.320000000000000E-002    5.768400779200846E-024
 -1.310000000000000E-002    7.226145393121314E-024
 -1.300000000000000E-002    8.352449924903718E-024
 -1.290000000000000E-002    8.939326136880548E-024
 -1.280000000000000E-002    8.774095086590135E-024
 -1.270000000000000E-002    7.659084010838900E-024
 -1.260000000000000E-002    5.435360747938365E-024
 -1.250000000000000E-002    2.009324774237164E-024
 -1.240000000000000E-002   -2.619613162646222E-024
 -1.230000000000000E-002   -8.332643037403336E-024
 -1.220000000000000E-002   -1.486936274533476E-023
 -1.210000000000000E-002   -2.181311053059655E-023
 -1.200000000000000E-002   -2.858734970407239E-023
 -1.190000000000000E-002   -3.446655554545801E-023
 -1.180000000000000E-002   -3.860463573597709E-023
 -1.170000000000000E-002   -4.008306385181752E-023
 -1.160000000000000E-002   -3.797963745706804E-023
 -1.150000000000000E-002   -3.145699638184072E-023
 -1.140000000000000E-002   -1.986795912218538E-023
 -1.130000000000000E-002   -2.872183280897534E-024
 -1.120000000000000E-002    1.944387126410330E-023
 -1.110000000000000E-002    4.645429336167224E-023
 -1.100000000000000E-002    7.690128616839970E-023
 -1.090000000000000E-002    1.088373981141987E-022
 -1.080000000000000E-002    1.396176329303837E-022
 -1.070000000000000E-002    1.659558916110227E-022
 -1.060000000000000E-002    1.840581318312049E-022
 -1.050000000000000E-002    1.898405662601100E-022
 -1.040000000000000E-002    1.792352950404930E-022
 -1.030000000000000E-002    1.485782271506315E-022
 -1.020000000000000E-002    9.506470668154221E-023
 -1.010000000000000E-002    1.724804724677830E-023
 -1.000000000000000E-002   -8.445441893128222E-023
 -9.899999999999999E-003   -2.072933176280952E-022
 -9.800000000000000E-003   -3.458110750081232E-022
 -9.699999999999999E-003   -4.916166708227259E-022
 -9.599999999999999E-003   -6.333718045917109E-022
 -9.500000000000000E-003   -7.570444678032865E-022
 -9.399999999999999E-003   -8.464753307241916E-022
 -9.299999999999999E-003   -8.842851720991458E-022
 -9.200000000000000E-003   -8.531270083626553E-022
 -9.099999999999999E-003   -7.372563672582049E-022
 -8.999999999999999E-003   -5.243566183311939E-022
 -8.900000000000000E-003   -2.075191180974349E-022
 -8.799999999999999E-003    2.127613702884887E-022
 -8.699999999999999E-003    7.267502715696931E-022
 -8.600000000000000E-003    1.313997848019392E-021
 -8.499999999999999E-003    1.942441234185907E-021
 -8.399999999999999E-003    2.568303406896763E-021
 -8.300000000000000E-003    3.136986914653902E-021
 -8.199999999999999E-003    3.585120505799465E-021
 -8.100000000000000E-003    3.843854452715934E-021
 -8.000000000000000E-003    3.843412833239964E-021
 -7.899999999999999E-003    3.518806456401708E-021
 -7.800000000000000E-003    2.816488406816504E-021
 -7.699999999999999E-003    1.701607008730455E-021
 -7.599999999999999E-003    1.653820530391976E-022
 -7.499999999999999E-003   -1.767985686554925E-021
 -7.399999999999999E-003   -4.035549907617536E-021
 -7.299999999999999E-003   -6.531740438805911E-021
 -7.199999999999999E-003   -9.107106438142613E-021
 -7.100000000000000E-003   -1.157037683956430E-020
 -6.999999999999999E-003   -1.369440238166982E-020
 -6.899999999999999E-003   -1.522636272551051E-020
 -6.800000000000000E-003   -1.590234974729359E-020
 -6.699999999999999E-003   -1.546612065065675E-020
 -6.599999999999999E-003   -1.369142930480134E-020
 -6.499999999999999E-003   -1.040694163966794E-020
 -6.399999999999999E-003   -5.522301823376530E-021
 -6.299999999999999E-003    9.464506761825189E-022
 -6.199999999999999E-003    8.854277287199860E-021
 -6.100000000000000E-003    1.790973543008610E-020
 -5.999999999999999E-003    2.766528366069730E-020
 -5.899999999999999E-003    3.751771815819150E-020
 -5.800000000000000E-003    4.672089460760639E-020
 -5.699999999999999E-003    5.441241641810255E-020
 -5.599999999999999E-003    5.965520841132669E-020
 -5.499999999999999E-003    6.149395414690936E-020
 -5.399999999999999E-003    5.902520728730007E-020
 -5.299999999999999E-003    5.147868798287715E-020
 -5.199999999999999E-003    3.830584403078277E-020
 -5.099999999999999E-003    1.927036840509352E-020
 -4.999999999999999E-003   -5.465895492329904E-021
 -4.899999999999999E-003   -3.526933511658396E-020
 -4.799999999999999E-003   -6.898152313959248E-020
 -4.699999999999999E-003   -1.048952332630776E-019
 -4.599999999999999E-003   -1.407675883887747E-019
 -4.499999999999999E-003   -1.738771299630899E-019
 -4.399999999999999E-003   -2.011297338218528E-019
 -4.299999999999999E-003   -2.192154920206422E-019
 -4.199999999999999E-003   -2.248151694934191E-019
 -4.099999999999999E-003   -2.148505637782020E-019
 -3.999999999999999E-003   -1.867688949035793E-019
 -3.899999999999999E-003   -1.388459944774012E-019
 -3.799999999999999E-003   -7.048928166717305E-020
 -3.699999999999999E-003    1.748322717557240E-020
 -3.599999999999999E-003    1.226140105043430E-019
 -3.499999999999999E-003    2.406550761341409E-019
 -3.399999999999999E-003    3.655223287881046E-019
 -3.299999999999999E-003    4.893799934334590E-019
 -3.199999999999999E-003    6.028747912048051E-019
 -3.099999999999999E-003    6.955317382744672E-019
 -2.999999999999999E-003    7.563134261721502E-019
 -2.899999999999999E-003    7.743324696565627E-019
 -2.799999999999999E-003    7.396928767449606E-019
 -2.699999999999999E-003    6.444216190213763E-019
 -2.599999999999999E-003    4.834370919522603E-019
 -2.499999999999999E-003    2.554888603333213E-019
 -2.399999999999999E-003   -3.600810006106805E-020
 -2.299999999999999E-003   -3.823271700360427E-019
 -2.199999999999999E-003   -7.690557571724696E-019
 -2.099999999999999E-003   -1.176071985635886E-018
 -1.999999999999999E-003   -1.577938395662215E-018
 -1.899999999999999E-003   -1.944762315459085E-018
 -1.799999999999999E-003   -2.243542208368123E-018
 -1.699999999999999E-003   -2.439990976724043E-018
 -1.599999999999999E-003   -2.500786542057481E-018
 -1.499999999999999E-003   -2.396162156536909E-018
 -1.399999999999999E-003   -2.102706937881227E-018
 -1.299999999999999E-003   -1.606208663415957E-018
 -1.199999999999999E-003   -9.043396792791837E-019
 -1.099999999999999E-003   -8.963579623122741E-021
 -9.999999999999989E-004    1.052172174165536E-018
 -8.999999999999990E-004    2.234584606201131E-018
 -7.999999999999990E-004    3.477252778850599E-018
 -6.999999999999989E-004    4.704030684721042E-018
 -5.999999999999990E-004    5.826381227110241E-018
 -4.999999999999989E-004    6.747462100525341E-018
 -3.999999999999989E-004    7.367501983774306E-018
 -2.999999999999989E-004    7.590303269225874E-018
 -1.999999999999989E-004    7.330599141916255E-018
 -9.999999999999892E-005    6.521891160436186E-018
  1.084202172485504E-018    5.124293132988777E-018
  1.000000000000011E-004    3.131833833922271E-018
  2.000000000000011E-004    5.786126139486755E-019
  3.000000000000011E-004   -2.456805592537850E-018
  4.000000000000011E-004   -5.849357529430130E-018
  5.000000000000011E-004   -9.428337257030164E-018
  6.000000000000011E-004   -1.298155339873698E-017
  7.000000000000011E-004   -1.626303849367144E-017
  8.000000000000011E-004   -1.900435151095718E-017
  9.000000000000012E-004   -2.092927815652078E-017
  1.000000000000001E-003   -2.177145282609229E-017
  1.100000000000001E-003   -2.129416915985713E-017
  1.200000000000001E-003   -1.931135915134296E-017
  1.300000000000001E-003   -1.570848620332196E-017
  1.400000000000001E-003   -1.046189956235748E-017
  1.500000000000001E-003   -3.655077138420516E-018
  1.600000000000001E-003    4.509838355958931E-018
  1.700000000000001E-003    1.370678225194468E-017
  1.800000000000001E-003    2.348808560538015E-017
  1.900000000000001E-003    3.329544585757505E-017
  2.000000000000001E-003    4.248013599046410E-017
  2.100000000000001E-003    5.033251159777367E-017
  2.200000000000001E-003    5.612024428364990E-017
  2.300000000000001E-003    5.913403495081144E-017
  2.400000000000001E-003    5.873884159088916E-017
  2.500000000000001E-003    5.442795004750605E-017
  2.600000000000001E-003    4.587669178161753E-017
  2.700000000000001E-003    3.299204941816378E-017
  2.800000000000001E-003    1.595418823292809E-017
  2.900000000000001E-003   -4.754129266762932E-018
  3.000000000000001E-003   -2.833407130907853E-017
  3.100000000000001E-003   -5.367648011991352E-017
  3.200000000000001E-003   -7.938929092528420E-017
  3.300000000000001E-003   -1.038479870325450E-016
  3.400000000000001E-003   -1.252690234038388E-016
  3.500000000000001E-003   -1.418046279555375E-016
  3.600000000000001E-003   -1.516556870232813E-016
  3.700000000000001E-003   -1.531977011114691E-016
  3.800000000000001E-003   -1.451132040831468E-016
  3.900000000000001E-003   -1.265227413677582E-016
  4.000000000000001E-003   -9.710526994841354E-017
  4.100000000000001E-003   -5.719861646997453E-017
  4.200000000000001E-003   -7.870385288266021E-018
  4.300000000000001E-003    4.904946656700093E-017
  4.400000000000001E-003    1.109818034224849E-016
  4.500000000000001E-003    1.746626180210284E-016
  4.600000000000002E-003    2.362611139333516E-016
  4.700000000000001E-003    2.915510085849974E-016
  4.800000000000001E-003    3.361307947636283E-016
  4.900000000000002E-003    3.656850512835185E-016
  5.000000000000001E-003    3.762747888332742E-016
  5.100000000000001E-003    3.646419065629602E-016
  5.200000000000001E-003    3.285093105989505E-016
  5.300000000000002E-003    2.668568219654224E-016
  5.400000000000001E-003    1.801516573697430E-016
  5.500000000000001E-003    7.051278477846986E-017
  5.600000000000002E-003   -5.821007940867933E-017
  5.700000000000001E-003   -2.004582571040510E-016
  5.800000000000001E-003   -3.490982579076317E-016
  5.900000000000002E-003   -4.956733489263182E-016
  6.000000000000001E-003   -6.307710154243621E-016
  6.100000000000001E-003   -7.444969859557659E-016
  6.200000000000002E-003   -8.270384661202000E-016
  6.300000000000002E-003   -8.692916543053631E-016
  6.400000000000001E-003   -8.635213041105102E-016
  6.500000000000001E-003   -8.040143167982918E-016
  6.600000000000002E-003   -6.876855911301371E-016
  6.700000000000001E-003   -5.145919478677167E-016
  6.800000000000001E-003   -2.883106391300423E-016
  6.900000000000002E-003   -1.614365327211431E-017
  7.000000000000001E-003    2.908867280863515E-016
  7.100000000000001E-003    6.182744607392554E-016
  7.200000000000002E-003    9.485104988625182E-016
  7.300000000000002E-003    1.261806978646887E-015
  7.400000000000001E-003    1.537046962334778E-015
  7.500000000000001E-003    1.752927449567756E-015
  7.600000000000002E-003    1.889246670207102E-015
  7.700000000000001E-003    1.928271823506053E-015
  7.800000000000001E-003    1.856112903452058E-015
  7.900000000000001E-003    1.664017897988097E-015
  8.000000000000002E-003    1.349499429790850E-015
  8.100000000000001E-003    9.172058443949880E-016
  8.200000000000001E-003    3.794537043089448E-016
  8.300000000000002E-003   -2.436493761291472E-016
  8.400000000000001E-003   -9.245453701528148E-016
  8.500000000000002E-003   -1.629059602109830E-015
  8.600000000000002E-003   -2.317731285196070E-015
  8.700000000000001E-003   -2.947615218577798E-015
  8.800000000000002E-003   -3.474494638748987E-015
  8.900000000000002E-003   -3.855414591615190E-015
  9.000000000000001E-003   -4.051416860162638E-015
  9.100000000000002E-003   -4.030328375189340E-015
  9.200000000000002E-003   -3.769439765558885E-015
  9.300000000000001E-003   -3.257899131427940E-015
  9.400000000000002E-003   -2.498640784369507E-015
  9.500000000000001E-003   -1.509685754436673E-015
  9.600000000000001E-003   -3.246640945264745E-016
  9.700000000000002E-003    1.007549195202472E-015
  9.800000000000001E-003    2.424160368793792E-015
  9.900000000000001E-003    3.850760293466139E-015
  1.000000000000000E-002    5.204565354883896E-015
  1.010000000000000E-002    6.398496255514195E-015
  1.020000000000000E-002    7.345929477443468E-015
  1.030000000000000E-002    7.965901132976193E-015
  1.040000000000000E-002    8.188493077745156E-015
  1.050000000000000E-002    7.960094572384209E-015
  1.060000000000000E-002    7.248207929041909E-015
  1.070000000000000E-002    6.045462099602726E-015
  1.080000000000000E-002    4.372519223905827E-015
  1.090000000000000E-002    2.279592841911981E-015
  1.100000000000000E-002   -1.536449777858970E-016
  1.110000000000000E-002   -2.819914521972916E-015
  1.120000000000000E-002   -5.587989884455688E-015
  1.130000000000000E-002   -8.308119355499444E-015
  1.140000000000000E-002   -1.081904367815235E-014
  1.150000000000000E-002   -1.295633806131764E-014
  1.160000000000000E-002   -1.456171084950616E-014
  1.170000000000000E-002   -1.549278266098069E-014
  1.180000000000000E-002   -1.563282113885716E-014
  1.190000000000000E-002   -1.489985156615229E-014
  1.200000000000000E-002   -1.325455306463489E-014
  1.210000000000000E-002   -1.070636849426843E-014
  1.220000000000000E-002   -7.317326020887648E-015
  1.230000000000000E-002   -3.203142157525691E-015
  1.240000000000000E-002    1.468685451015220E-015
  1.250000000000000E-002    6.483936377557262E-015
  1.260000000000000E-002    1.158986245515057E-014
  1.270000000000000E-002    1.650629299494525E-014
  1.280000000000000E-002    2.093926583747881E-014
  1.290000000000000E-002    2.459661344166719E-014
  1.300000000000000E-002    2.720474328792946E-014
  1.310000000000000E-002    2.852579026617955E-014
  1.320000000000000E-002    2.837415710921699E-014
  1.330000000000000E-002    2.663144543763622E-014
  1.340000000000000E-002    2.325882110272681E-014
  1.350000000000000E-002    1.830586934737811E-014
  1.360000000000000E-002    1.191514951457151E-014
  1.370000000000000E-002    4.321863734672484E-015
  1.380000000000000E-002   -4.151763679670007E-015
  1.390000000000000E-002   -1.310749913605076E-014
  1.400000000000000E-002   -2.208731072972763E-014
  1.410000000000000E-002   -3.059427780747271E-014
  1.420000000000000E-002   -3.811739742305454E-014
  1.430000000000000E-002   -4.415918087107938E-014
  1.440000000000000E-002   -4.826470527093651E-014
  1.450000000000000E-002   -5.005058259373436E-014
  1.460000000000000E-002   -4.923219214270114E-014
  1.470000000000000E-002   -4.564749128607028E-014
  1.480000000000000E-002   -3.927578374883832E-014
  1.490000000000000E-002   -3.024996805332772E-014
  1.500000000000000E-002   -1.886108112916627E-014
  1.510000000000000E-002   -5.554216998027009E-015
  1.520000000000000E-002    9.084535856398571E-015
  1.530000000000000E-002    2.435016051652827E-014
  1.540000000000000E-002    3.944919389496181E-014
  1.550000000000000E-002    5.353752225666119E-014
  1.560000000000000E-002    6.576388851962593E-014
  1.570000000000000E-002    7.531708790012633E-014
  1.580000000000000E-002    8.147438752860661E-014
  1.590000000000000E-002    8.364852752727380E-014
  1.600000000000000E-002    8.143051755527443E-014
  1.610000000000000E-002    7.462542015670024E-014
  1.620000000000000E-002    6.327863553656515E-014
  1.630000000000000E-002    4.769045476614046E-014
  1.640000000000000E-002    2.841724672495746E-014
  1.650000000000000E-002    6.258214702090112E-015
  1.660000000000000E-002   -1.777243249273400E-014
  1.670000000000000E-002   -4.248739737702790E-014
  1.680000000000000E-002   -6.658083338478133E-014
  1.690000000000000E-002   -8.869323820188633E-014
  1.700000000000000E-002   -1.074837053314767E-013
  1.710000000000000E-002   -1.217059141373350E-013
  1.720000000000000E-002   -1.302837304434520E-013
  1.730000000000000E-002   -1.323822204503509E-013
  1.740000000000000E-002   -1.274695823423847E-013
  1.750000000000000E-002   -1.153660678258499E-013
  1.760000000000000E-002   -9.627623728087968E-014
  1.770000000000000E-002   -7.080171341926309E-014
  1.780000000000000E-002   -3.993254826982195E-014
  1.790000000000000E-002   -5.016306053177482E-015
  1.800000000000000E-002    3.229461723217966E-014
  1.810000000000000E-002    7.011590290745892E-014
  1.820000000000000E-002    1.064214772226080E-013
  1.830000000000000E-002    1.391469571179449E-013
  1.840000000000000E-002    1.663013745047139E-013
  1.850000000000000E-002    1.860814282293030E-013
  1.860000000000000E-002    1.969820357064262E-013
  1.870000000000000E-002    1.978968461165192E-013