 -4.000000000000000E-002    0.000000000000000E+000
 -3.990000000000000E-002    0.000000000000000E+000
 -3.980000000000000E-002    0.000000000000000E+000
 -3.970000000000000E-002    0.000000000000000E+000
 -3.960000000000000E-002    0.000000000000000E+000
 -3.950000000000000E-002    0.000000000000000E+000
 -3.940000000000000E-002    0.000000000000000E+000
 -3.930000000000000E-002   -1.684759541686379E-024
 -3.920000000000000E-002   -1.914743111818772E-023
 -3.910000000000000E-002   -1.108292168560259E-022
 -3.900000000000000E-002   -4.259039631520160E-022
 -3.890000000000000E-002   -1.172446777588190E-021
 -3.880000000000000E-002   -2.219440408714114E-021
 -3.870000000000000E-002   -1.747816962580944E-021
 -3.860000000000000E-002    6.909945082914111E-021
 -3.850000000000000E-002    4.107442136218895E-020
 -3.840000000000000E-002    1.372519356289444E-019
 -3.830000000000000E-002    3.605893496003782E-019
 -3.820000000000000E-002    8.102426584894766E-019
 -3.810000000000000E-002    1.611534474404657E-018
 -3.800000000000000E-002    2.881988155022826E-018
 -3.790000000000000E-002    4.657040507150356E-018
 -3.780000000000000E-002    6.765263933204064E-018
 -3.770000000000000E-002    8.654989778584591E-018
 -3.760000000000000E-002    9.195780220253392E-018
 -3.750000000000000E-002    6.508052331578032E-018
 -3.740000000000000E-002   -2.092725175760808E-018
 -3.730000000000000E-002   -1.992377982407278E-017
 -3.720000000000000E-002   -5.041327510666304E-017
 -3.710000000000000E-002   -9.613291491876693E-017
 -3.700000000000000E-002   -1.573590870604031E-016
 -3.690000000000000E-002   -2.302564103714599E-016
 -3.680000000000000E-002   -3.049381862409987E-016
 -3.670000000000000E-002   -3.638368696338751E-016
 -3.660000000000000E-002   -3.809735837461731E-016
 -3.650000000000000E-002   -3.227989201750239E-016
 -3.640000000000000E-002   -1.512319355179118E-016
 -3.630000000000000E-002    1.706910784453854E-016
 -3.620000000000000E-002    6.705525090630664E-016
 -3.610000000000000E-002    1.356240242286943E-015
 -3.600000000000000E-002    2.204822643092814E-015
 -3.590000000000000E-002    3.152497491341372E-015
 -3.580000000000000E-002    4.087982065743360E-015
 -3.570000000000000E-002    4.851853874918844E-015
 -3.560000000000000E-002    5.244037494142303E-015
 -3.550000000000000E-002    5.040778119378354E-015
 -3.540000000000000E-002    4.021088819384577E-015
 -3.530000000000000E-002    2.000951529822048E-015
 -3.520000000000000E-002   -1.128236679387984E-015
 -3.510000000000000E-002   -5.362024001886329E-015
 -3.500000000000000E-002   -1.055202111087321E-014
 -3.490000000000000E-002   -1.638770677933003E-014
 -3.480000000000000E-002   -2.239572936015929E-014
 -3.470000000000000E-002   -2.795933796791860E-014
 -3.460000000000000E-002   -3.235764256583801E-014
 -3.450000000000000E-002   -3.482124720336380E-014
 -3.440000000000000E-002   -3.459807910538918E-014
 -3.430000000000000E-002   -3.102162810903065E-014
 -3.420000000000000E-002   -2.357388043523754E-014
 -3.410000000000000E-002   -1.193717589066368E-014
 -3.400000000000000E-002    3.967283064961505E-015
 -3.390000000000000E-002    2.395201272549746E-014
 -3.380000000000000E-002    4.754053710785954E-014
 -3.370000000000000E-002    7.394046914312135E-014
 -3.360000000000000E-002    1.020039378774306E-013
 -3.350000000000000E-002    1.301712169139882E-013
 -3.340000000000000E-002    1.564017706262275E-013
 -3.330000000000000E-002    1.781081880223379E-013
 -3.320000000000000E-002    1.921209542097228E-013
 -3.310000000000000E-002    1.947222503459386E-013
 -3.300000000000000E-002    1.817921288965094E-013
 -3.290000000000000E-002    1.491066303024203E-013
 -3.280000000000000E-002    9.281298451204808E-014
 -3.270000000000000E-002    1.008088269200744E-014
 -3.260000000000000E-002   -1.001067627772912E-013
 -3.250000000000000E-002   -2.361011976752415E-013
 -3.240000000000000E-002   -3.927907198416705E-013
 -3.230000000000000E-002   -5.610066929364430E-013
 -3.220000000000000E-002   -7.272931588197620E-013
 -3.210000000000000E-002   -8.741887979889424E-013
 -3.200000000000000E-002   -9.811298213527242E-013
 -3.190000000000000E-002   -1.026015197794125E-012
 -3.180000000000000E-002   -9.873851352787253E-013
 -3.170000000000000E-002   -8.470633178991460E-013
 -3.160000000000000E-002   -5.930151984670592E-013
 -3.150000000000000E-002   -2.220958030694200E-013
 -3.140000000000000E-002    2.576818206299970E-013
 -3.130000000000000E-002    8.257235123244609E-013
 -3.120000000000000E-002    1.448584062143178E-012
 -3.110000000000000E-002    2.081051642956449E-012
 -3.100000000000000E-002    2.668640639416366E-012
 -3.090000000000000E-002    3.151380048140025E-012
 -3.080000000000000E-002    3.468617035979242E-012
 -3.070000000000000E-002    3.564421059346169E-012
 -3.060000000000000E-002    3.393083328102473E-012
 -3.050000000000000E-002    2.924182586776552E-012
 -3.040000000000000E-002    2.146732780809973E-012
 -3.030000000000000E-002    1.072031085380551E-012
 -3.020000000000000E-002   -2.650257991605546E-013
 -3.010000000000000E-002   -1.806230000878400E-012
 -3.000000000000000E-002   -3.471876657651651E-012
 -2.990000000000000E-002   -5.163912100734608E-012
 -2.980000000000000E-002   -6.770177634853229E-012
 -2.970000000000000E-002   -8.169511207347464E-012
 -2.960000000000000E-002   -9.237531478742274E-012
 -2.950000000000000E-002   -9.853020397535876E-012
 -2.940000000000000E-002   -9.904886082125857E-012
 -2.930000000000000E-002   -9.299739224735524E-012
 -2.920000000000000E-002   -7.970064854137211E-012
 -2.910000000000000E-002   -5.882841037460046E-012
 -2.900000000000000E-002   -3.048242010265940E-012
 -2.890000000000000E-002    4.722255728403447E-013
 -2.880000000000000E-002    4.559101466429960E-012
 -2.870000000000000E-002    9.031054195343624E-012
 -2.860000000000000E-002    1.364498185959836E-011
 -2.850000000000000E-002    1.810139312694643E-011
 -2.840000000000000E-002    2.205604866841705E-011
 -2.830000000000000E-002    2.513832947160841E-011
 -2.820000000000000E-002    2.697609356292459E-011
 -2.810000000000000E-002    2.722593845796811E-011
 -2.800000000000000E-002    2.560691100016264E-011
 -2.790000000000000E-002    2.193491585154547E-011
 -2.780000000000000E-002    1.615452366474536E-011
 -2.770000000000000E-002    8.364592384211641E-012
 -2.760000000000000E-002   -1.165718411786673E-012
 -2.750000000000000E-002   -1.199345813048784E-011
 -2.740000000000000E-002   -2.351289744419145E-011
 -2.730000000000000E-002   -3.498182339799360E-011
 -2.720000000000000E-002   -4.556251212647576E-011
 -2.710000000000000E-002   -5.437539983336538E-011
 -2.700000000000000E-002   -6.056214023445109E-011
 -2.690000000000000E-002   -6.335377321826680E-011
 -2.680000000000000E-002   -6.213898027102085E-011
 -2.670000000000000E-002   -5.652715827292939E-011
 -2.660000000000000E-002   -4.640114100465736E-011
 -2.650000000000000E-002   -3.195483744272141E-011
 -2.640000000000000E-002   -1.371192265707592E-011
 -2.630000000000000E-002    7.477353114185220E-012
 -2.620000000000000E-002    3.046287313660952E-011
 -2.610000000000000E-002    5.384521363609930E-011
 -2.600000000000000E-002    7.604895303008046E-011
 -2.590000000000000E-002    9.541605954397867E-011
 -2.580000000000000E-002    1.103151675728997E-010
 -2.570000000000000E-002    1.192609292591197E-010
 -2.560000000000000E-002    1.210361921359125E-010
 -2.550000000000000E-002    1.148085102954346E-010
 -2.540000000000000E-002    1.002315425836427E-010
 -2.530000000000000E-002    7.752171264484925E-011
 -2.520000000000000E-002    4.750106928045169E-011
 -2.510000000000000E-002    1.159858285057582E-011
 -2.500000000000000E-002   -2.819534724955964E-011
 -2.490000000000000E-002   -6.942298885401476E-011
 -2.480000000000000E-002   -1.092997769064473E-010
 -2.470000000000000E-002   -1.448944934792995E-010
 -2.460000000000000E-002   -1.733380086705462E-010
 -2.450000000000000E-002   -1.920456422747662E-010
 -2.440000000000000E-002   -1.989356048530742E-010
 -2.430000000000000E-002   -1.926247999919037E-010
 -2.420000000000000E-002   -1.725838917305121E-010
 -2.410000000000000E-002   -1.392363960331003E-010
 -2.400000000000000E-002   -9.399045300526756E-011
 -2.390000000000000E-002   -3.919780514899134E-011
 -2.380000000000000E-002    2.195962586532360E-011
 -2.370000000000000E-002    8.564866241994776E-011
 -2.360000000000000E-002    1.476174986736630E-010
 -2.350000000000000E-002    2.034656176553928E-010
 -2.340000000000000E-002    2.489328461942973E-010
 -2.330000000000000E-002    2.801882400163307E-010
 -2.320000000000000E-002    2.941009816029062E-010
 -2.310000000000000E-002    2.884776822766232E-010
 -2.300000000000000E-002    2.622533869080947E-010
 -2.290000000000000E-002    2.156266188817661E-010
 -2.280000000000000E-002    1.501315496896877E-010
 -2.270000000000000E-002    6.864218088208860E-011
 -2.260000000000000E-002   -2.469505731672218E-011
 -2.250000000000000E-002   -1.246033692032081E-010
 -2.240000000000000E-002   -2.248938730531792E-010
 -2.230000000000000E-002   -3.187601405515068E-010
 -2.220000000000000E-002   -3.991453757445324E-010
 -2.210000000000000E-002   -4.591735917830110E-010
 -2.200000000000000E-002   -4.926288256466900E-010
 -2.190000000000000E-002   -4.944582777282601E-010
 -2.180000000000000E-002   -4.612662676130334E-010
 -2.170000000000000E-002   -3.917579532669765E-010
 -2.160000000000000E-002   -2.870871287576250E-010
 -2.150000000000000E-002   -1.510609723445237E-010
 -2.140000000000000E-002    9.839806705738704E-012
 -2.130000000000000E-002    1.866569213091589E-010
 -2.120000000000000E-002    3.683798424241907E-010
 -2.110000000000000E-002    5.425936425348864E-010
 -2.100000000000000E-002    6.963166339184996E-010
 -2.090000000000000E-002    8.169722955742926E-010
 -2.080000000000000E-002    8.934184950616657E-010
 -2.070000000000000E-002    9.169439201055599E-010
 -2.060000000000000E-002    8.821368936528601E-010
 -2.050000000000000E-002    7.875368249846038E-010
 -2.040000000000000E-002    6.359963643339114E-010
 -2.030000000000000E-002    4.347080291546049E-010
 -2.020000000000000E-002    1.948803464919946E-010
 -2.010000000000000E-002   -6.891528897110399E-011
 -2.000000000000000E-002   -3.396745302072079E-010
 -1.990000000000000E-002   -5.990869207961895E-010
 -1.980000000000000E-002   -8.287647526665002E-010
 -1.970000000000000E-002   -1.011473228059760E-009
 -1.960000000000000E-002   -1.132270782461542E-009
 -1.950000000000000E-002   -1.179485545946912E-009
 -1.940000000000000E-002   -1.145479334647495E-009
 -1.930000000000000E-002   -1.027179288168427E-009
 -1.920000000000000E-002   -8.263808229617030E-010
 -1.910000000000000E-002   -5.498447926183083E-010
 -1.900000000000000E-002   -2.092160042363119E-010
 -1.890000000000000E-002    1.792112503151630E-010
 -1.880000000000000E-002    5.948737585667732E-010
 -1.870000000000000E-002    1.013481919222470E-009
 -1.860000000000000E-002    1.407763171761298E-009
 -1.850000000000000E-002    1.748468316422107E-009
 -1.840000000000000E-002    2.005709378475695E-009
 -1.830000000000000E-002    2.150693919566406E-009
 -1.820000000000000E-002    2.157891212022008E-009
 -1.810000000000000E-002    2.007625704193579E-009
 -1.800000000000000E-002    1.689032891660331E-009
 -1.790000000000000E-002    1.203246789812103E-009
 -1.780000000000000E-002    5.666294644235444E-010
 -1.770000000000000E-002   -1.862026956983460E-010
 -1.760000000000000E-002   -9.998216980645023E-010
 -1.750000000000000E-002   -1.796167005009769E-009
 -1.740000000000000E-002   -2.473689914617922E-009
 -1.730000000000000E-002   -2.907621969451465E-009
 -1.720000000000000E-002   -2.951434752231833E-009
 -1.710000000000000E-002   -2.439443865890609E-009
 -1.700000000000000E-002   -1.190404102924625E-009
 -1.690000000000000E-002    9.881600786958341E-010
 -1.680000000000000E-002    4.295199984591237E-009
 -1.670000000000000E-002    8.931335546132253E-009
 -1.660000000000000E-002    1.509430941583484E-008
 -1.650000000000000E-002    2.297500779071354E-008
 -1.640000000000000E-002    3.275423715777279E-008
 -1.630000000000000E-002    4.460032673403513E-008
 -1.620000000000000E-002    5.866753136403354E-008
 -1.610000000000000E-002    7.509511832326969E-008
 -1.600000000000000E-002    9.400690004397486E-008
 -1.590000000000000E-002    1.155110113278393E-007
 -1.580000000000000E-002    1.396997235789617E-007
 -1.570000000000000E-002    1.666491297946319E-007
 -1.560000000000000E-002    1.964186669087759E-007
 -1.550000000000000E-002    2.290505438108204E-007
 -1.540000000000000E-002    2.645694159652027E-007
 -1.530000000000000E-002    3.029823206661049E-007
 -1.520000000000000E-002    3.442796047765139E-007
 -1.510000000000000E-002    3.884368722888756E-007
 -1.500000000000000E-002    4.354184297903232E-007
 -1.490000000000000E-002    4.851825356393477E-007
 -1.480000000000000E-002    5.376880000575194E-007
 -1.470000000000000E-002    5.929025647885497E-007
 -1.460000000000000E-002    6.508123382396976E-007
 -1.450000000000000E-002    7.114315324181533E-007
 -1.440000000000000E-002    7.748127320074254E-007
 -1.430000000000000E-002    8.410556245716933E-007
 -1.420000000000000E-002    9.103148910734134E-007
 -1.410000000000000E-002    9.828057264939265E-007
 -1.400000000000000E-002    1.058806923006768E-006
 -1.390000000000000E-002    1.138660910447440E-006
 -1.380000000000000E-002    1.222771483010787E-006
 -1.370000000000000E-002    1.311598373211694E-006
 -1.360000000000000E-002    1.405649845756531E-006
 -1.350000000000000E-002    1.505473348513769E-006
 -1.340000000000000E-002    1.611645123249062E-006
 -1.330000000000000E-002    1.724758996204100E-006
 -1.320000000000000E-002    1.845416182322010E-006
 -1.310000000000000E-002    1.974214973235939E-006
 -1.300000000000000E-002    2.111741830284391E-006
 -1.290000000000000E-002    2.258564724941784E-006
 -1.280000000000000E-002    2.415228864859167E-006
 -1.270000000000000E-002    2.582253943332109E-006
 -1.260000000000000E-002    2.760134852527177E-006
 -1.250000000000000E-002    2.949344275314625E-006
 -1.240000000000000E-002    3.150339159203609E-006
 -1.230000000000000E-002    3.363568601569804E-006
 -1.220000000000000E-002    3.589483948970715E-006
 -1.210000000000000E-002    3.828551881322403E-006
 -1.200000000000000E-002    4.081267289134925E-006
 -1.190000000000000E-002    4.348167314196607E-006
 -1.180000000000000E-002    4.629845378688090E-006
 -1.170000000000000E-002    4.926964756576475E-006
 -1.160000000000000E-002    5.240268187251646E-006
 -1.150000000000000E-002    5.570587515353844E-006
 -1.140000000000000E-002    5.918850079951822E-006
 -1.130000000000000E-002    6.286080437473002E-006
 -1.120000000000000E-002    6.673400119181922E-006
 -1.110000000000000E-002    7.082026305204165E-006
 -1.100000000000000E-002    7.513263555858863E-006
 -1.090000000000000E-002    7.968499812339229E-006
 -1.080000000000000E-002    8.449197302239345E-006
 -1.070000000000000E-002    8.956888282285816E-006
 -1.060000000000000E-002    9.493165396890684E-006
 -1.050000000000000E-002    1.005968074915378E-005
 -1.040000000000000E-002    1.065814098585349E-005
 -1.030000000000000E-002    1.129030823462872E-005
 -1.020000000000000E-002    1.195800086926238E-005
 -1.010000000000000E-002    1.266309640099529E-005
 -1.000000000000000E-002    1.340753526358144E-005
 -9.899999999999999E-003    1.419332083264704E-005
 -9.800000000000000E-003    1.502252504959874E-005
 -9.699999999999999E-003    1.589728939518558E-005
 -9.599999999999999E-003    1.681982613096103E-005
 -9.500000000000000E-003    1.779241652766742E-005
 -9.399999999999999E-003    1.881741003766384E-005
 -9.299999999999999E-003    1.989722968451480E-005
 -9.200000000000000E-003    2.103436690688153E-005
 -9.099999999999999E-003    2.223138767002322E-005
 -8.999999999999999E-003    2.349094433411283E-005
 -8.900000000000000E-003    2.481577899440189E-005
 -8.799999999999999E-003    2.620874248778194E-005
 -8.699999999999999E-003    2.767280816930115E-005
 -8.600000000000000E-003    2.921110315007957E-005
 -8.499999999999999E-003    3.082691674536921E-005
 -8.399999999999999E-003    3.252372869805712E-005
 -8.300000000000000E-003    3.430523836852079E-005
 -8.199999999999999E-003    3.617537206796881E-005
 -8.100000000000000E-003    3.813830492972442E-005
 -8.000000000000000E-003    4.019846895460895E-005
 -7.899999999999999E-003    4.236055450741977E-005
 -7.800000000000000E-003    4.462950884810708E-005
 -7.699999999999999E-003    4.701052503459829E-005
 -7.599999999999999E-003    4.950902507318584E-005
 -7.499999999999999E-003    5.213065219240799E-005
 -7.399999999999999E-003    5.488124042734933E-005
 -7.299999999999999E-003    5.776680467608504E-005
 -7.199999999999999E-003    6.079351393827808E-005
 -7.100000000000000E-003    6.396770006040837E-005
 -6.999999999999999E-003    6.729583300188462E-005
 -6.899999999999999E-003    7.078452565634638E-005
 -6.800000000000000E-003    7.444056254608027E-005
 -6.699999999999999E-003    7.827088550189622E-005
 -6.599999999999999E-003    8.228264841847584E-005
 -6.499999999999999E-003    8.648322543874439E-005
 -6.399999999999999E-003    9.088024805482741E-005
 -6.299999999999999E-003    9.548164166305204E-005
 -6.199999999999999E-003    1.002956549535969E-004
 -6.100000000000000E-003    1.053308794103231E-004
 -5.999999999999999E-003    1.105962792991398E-004
 -5.899999999999999E-003    1.161011955860974E-004
 -5.800000000000000E-003    1.218553969293274E-004
 -5.699999999999999E-003    1.278690327357379E-004
 -5.599999999999999E-003    1.341526708532192E-004
 -5.499999999999999E-003    1.407172670272519E-004
 -5.399999999999999E-003    1.475741795643822E-004
 -5.299999999999999E-003    1.547351327093289E-004
 -5.199999999999999E-003    1.622122612811116E-004
 -5.099999999999999E-003    1.700180391781929E-004
 -4.999999999999999E-003    1.781653236634410E-004
 -4.899999999999999E-003    1.866673604655826E-004
 -4.799999999999999E-003    1.955377481956793E-004
 -4.699999999999999E-003    2.047904810387166E-004
 -4.599999999999999E-003    2.144399192303707E-004
 -4.499999999999999E-003    2.245008475227794E-004
 -4.399999999999999E-003    2.349884779419224E-004
 -4.299999999999999E-003    2.459183903734241E-004
 -4.199999999999999E-003    2.573066297711171E-004
 -4.099999999999999E-003    2.691696847620755E-004
 -3.999999999999999E-003    2.815245290996496E-004
 -3.899999999999999E-003    2.943885585146283E-004
 -3.799999999999999E-003    3.077796737055416E-004
 -3.699999999999999E-003    3.217162751427930E-004
 -3.599999999999999E-003    3.362172681077120E-004
 -3.499999999999999E-003    3.513020818403625E-004
 -3.399999999999999E-003    3.669907381406140E-004
 -3.299999999999999E-003    3.833037911478305E-004
 -3.199999999999999E-003    4.002623968697808E-004
 -3.099999999999999E-003    4.178883149964054E-004
 -2.999999999999999E-003    4.362039065196924E-004
 -2.899999999999999E-003    4.552322116215138E-004
 -2.799999999999999E-003    4.749968927262577E-004
 -2.699999999999999E-003    4.955222153521471E-004
 -2.599999999999999E-003    5.168330822478938E-004
 -2.499999999999999E-003    5.389550185778828E-004
 -2.399999999999999E-003    5.619141823815708E-004
 -2.299999999999999E-003    5.857372589373719E-004
 -2.199999999999999E-003    6.104515048755025E-004
 -2.099999999999999E-003    6.360846960717459E-004
 -1.999999999999999E-003    6.626650448139906E-004
 -1.899999999999999E-003    6.902213437916623E-004
 -1.799999999999999E-003    7.187827723924570E-004
 -1.699999999999999E-003    7.483789890265109E-004
 -1.599999999999999E-003    7.790400677715208E-004
 -1.499999999999999E-003    8.107965379628293E-004
 -1.399999999999999E-003    8.436794371102465E-004
 -1.299999999999999E-003    8.777203483264312E-004
 -1.199999999999999E-003    9.129513117078355E-004
 -1.099999999999999E-003    9.494048856496025E-004
 -9.999999999999989E-004    9.871143944994989E-004
 -8.999999999999990E-004    1.026113795802845E-003
 -7.999999999999990E-004    1.066437563604485E-003
 -6.999999999999989E-004    1.108121111582615E-003
 -5.999999999999990E-004    1.151200287085936E-003
 -4.999999999999989E-004    1.195711823700001E-003
 -3.999999999999989E-004    1.241692915784104E-003
 -2.999999999999989E-004    1.289181517310473E-003
 -1.999999999999989E-004    1.338215999912280E-003
 -9.999999999999892E-005    1.388835337965615E-003
  1.084202172485504E-018    1.441078845673115E-003
  1.000000000000011E-004    1.494986231516773E-003
  2.000000000000011E-004    1.550597446884810E-003
  3.000000000000011E-004    1.607952731229483E-003
  4.000000000000011E-004    1.667092486843515E-003
  5.000000000000011E-004    1.728057391172782E-003
  6.000000000000011E-004    1.790888170196337E-003
  7.000000000000011E-004    1.855625579375904E-003
  8.000000000000011E-004    1.922310755516447E-003
  9.000000000000012E-004    1.990985064840427E-003
  1.000000000000001E-003    2.061689834216601E-003
  1.100000000000001E-003    2.134466707748905E-003
  1.200000000000001E-003    2.209357464329400E-003
  1.300000000000001E-003    2.286404093638376E-003
  1.400000000000001E-003    2.365648892918370E-003
  1.500000000000001E-003    2.447134365798068E-003
  1.600000000000001E-003    2.530902831345453E-003
  1.700000000000001E-003    2.616996709805437E-003
  1.800000000000001E-003    2.705458348960921E-003
  1.900000000000001E-003    2.796330100939112E-003
  2.000000000000001E-003    2.889653831715773E-003
  2.100000000000001E-003    2.985471299918871E-003
  2.200000000000001E-003    3.083823689241288E-003
  2.300000000000001E-003    3.184752004054967E-003
  2.400000000000001E-003    3.288296194921344E-003
  2.500000000000001E-003    3.394495887995718E-003
  2.600000000000001E-003    3.503390157247399E-003
  2.700000000000001E-003    3.615016904245075E-003
  2.800000000000001E-003    3.729414041991251E-003
  2.900000000000001E-003    3.846617815597891E-003
  3.000000000000001E-003    3.966664542182340E-003
  3.100000000000001E-003    4.089588563273952E-003
  3.200000000000001E-003    4.215424262071592E-003
  3.300000000000001E-003    4.344204566787048E-003
  3.400000000000001E-003    4.475961453278254E-003
  3.500000000000001E-003    4.610725795154103E-003
  3.600000000000001E-003    4.748527613696793E-003
  3.700000000000001E-003    4.889395518712377E-003
  3.800000000000001E-003    5.033356321619609E-003
  3.900000000000001E-003    5.180436359810975E-003
  4.000000000000001E-003    5.330659741435997E-003
  4.100000000000001E-003    5.484049107109106E-003
  4.200000000000001E-003    5.640625378196126E-003
  4.300000000000001E-003    5.800408141771222E-003
  4.400000000000001E-003    5.963414574554689E-003
  4.500000000000001E-003    6.129660047686031E-003
  4.600000000000002E-003    6.299157940134211E-003
  4.700000000000001E-003    6.471919024678685E-003
  4.800000000000001E-003    6.647952426459831E-003
  4.900000000000002E-003    6.827264454269725E-003
  5.000000000000001E-003    7.009858861074698E-003
  5.100000000000001E-003    7.195736745940501E-003
  5.200000000000001E-003    7.384897510153668E-003
  5.300000000000002E-003    7.577336116503255E-003
  5.400000000000001E-003    7.773046097086044E-003
  5.500000000000001E-003    7.972017543001182E-003
  5.600000000000002E-003    8.174238078450373E-003
  5.700000000000001E-003    8.379691098893156E-003
  5.800000000000001E-003    8.588357371567889E-003
  5.900000000000002E-003    8.800214930422870E-003
  6.000000000000001E-003    9.015238695097461E-003
  6.100000000000001E-003    9.233399082277759E-003
  6.200000000000002E-003    9.454663161385587E-003
  6.300000000000002E-003    9.678996507148390E-003
  6.400000000000001E-003    9.906358079769095E-003
  6.500000000000001E-003    1.013670559850333E-002
  6.600000000000002E-003    1.036999206629785E-002
  6.700000000000001E-003    1.060616619761178E-002
  6.800000000000001E-003    1.084517332472482E-002
  6.900000000000002E-003    1.108695504433491E-002
  7.000000000000001E-003    1.133144669193644E-002
  7.100000000000001E-003    1.157858227733931E-002
  7.200000000000002E-003    1.182828905330208E-002
  7.300000000000002E-003    1.208049145900246E-002
  7.400000000000001E-003    1.233510769228578E-002
  7.500000000000001E-003    1.259205267924544E-002
  7.600000000000002E-003    1.285123570442128E-002
  7.700000000000001E-003    1.311256217630021E-002
  7.800000000000001E-003    1.337593274869308E-002
  7.900000000000001E-003    1.364124213355929E-002
  8.000000000000002E-003    1.390838121469213E-002
  8.100000000000001E-003    1.417723622394295E-002
  8.200000000000001E-003    1.444768839774830E-002
  8.300000000000002E-003    1.471961322818367E-002
  8.400000000000001E-003    1.499288284384198E-002
  8.500000000000002E-003    1.526736263586273E-002
  8.600000000000002E-003    1.554291370355193E-002
  8.700000000000001E-003    1.581939363152715E-002
  8.800000000000002E-003    1.609665406310444E-002
  8.900000000000002E-003    1.637454268882713E-002
  9.000000000000001E-003    1.665290060078236E-002
  9.100000000000002E-003    1.693156388924686E-002
  9.200000000000002E-003    1.721036594122956E-002
  9.300000000000001E-003    1.748913201674998E-002
  9.400000000000002E-003    1.776768652283825E-002
  9.500000000000001E-003    1.804584537419110E-002
  9.600000000000001E-003    1.832341953791136E-002
  9.700000000000002E-003    1.860021775156503E-002
  9.800000000000001E-003    1.887604201455324E-002
  9.900000000000001E-003    1.915068950064458E-002
  1.000000000000000E-002    1.942395299273694E-002
  1.010000000000000E-002    1.969562130401179E-002
  1.020000000000000E-002    1.996547636293850E-002
  1.030000000000000E-002    2.023329886184335E-002
  1.040000000000000E-002    2.049886182262413E-002
  1.050000000000000E-002    2.076193741454133E-002
  1.060000000000000E-002    2.102229083940088E-002
  1.070000000000000E-002    2.127968439721025E-002
  1.080000000000000E-002    2.153387695921404E-002
  1.090000000000000E-002    2.178462514561310E-002
  1.100000000000000E-002    2.203167906531807E-002
  1.110000000000000E-002    2.227478702728589E-002
  1.120000000000000E-002    2.251369412707514E-002
  1.130000000000000E-002    2.274814073303152E-002
  1.140000000000000E-002    2.297786495186693E-002
  1.150000000000000E-002    2.320260446224376E-002
  1.160000000000000E-002    2.342209236222766E-002
  1.170000000000000E-002    2.363605964831370E-002
  1.180000000000000E-002    2.384423358478689E-002
  1.190000000000000E-002    2.404634146250031E-002
  1.200000000000000E-002    2.424210912931092E-002
  1.210000000000000E-002    2.443125792855007E-002
  1.220000000000000E-002    2.461351077484425E-002
  1.230000000000000E-002    2.478858734003268E-002
  1.240000000000000E-002    2.495620819667407E-002
  1.250000000000000E-002    2.511609108229273E-002
  1.260000000000000E-002    2.526795549711856E-002
  1.270000000000000E-002    2.541151697534221E-002
  1.280000000000000E-002    2.554649622978136E-002
  1.290000000000000E-002    2.567261062642964E-002
  1.300000000000000E-002    2.578957950020917E-002
  1.310000000000000E-002    2.589712218483640E-002
  1.320000000000000E-002    2.599495972720463E-002
  1.330000000000000E-002    2.608281446050220E-002
  1.340000000000000E-002    2.616041046732216E-002
  1.350000000000000E-002    2.622747557439804E-002
  1.360000000000000E-002    2.628373706432717E-002
  1.370000000000000E-002    2.632892757255486E-002
  1.380000000000000E-002    2.636278205757303E-002
  1.390000000000000E-002    2.638503895005527E-002
  1.400000000000000E-002    2.639544217137257E-002
  1.410000000000000E-002    2.639373650766739E-002
  1.420000000000000E-002    2.637967142844239E-002
  1.430000000000000E-002    2.635300304124691E-002
  1.440000000000000E-002    2.631349161182331E-002
  1.450000000000000E-002    2.626090048803708E-002
  1.460000000000000E-002    2.619500091579954E-002
  1.470000000000000E-002    2.611556928915054E-002
  1.480000000000000E-002    2.602238738426476E-002
  1.490000000000000E-002    2.591524535957197E-002
  1.500000000000000E-002    2.579393616809615E-002
  1.510000000000000E-002    2.565826361252124E-002
  1.520000000000000E-002    2.550803619288195E-002
  1.530000000000000E-002    2.534307298563288E-002
  1.540000000000000E-002    2.516319822177337E-002
  1.550000000000000E-002    2.496824543302826E-002
  1.560000000000000E-002    2.475805675872480E-002
  1.570000000000000E-002    2.453248483836159E-002
  1.580000000000000E-002    2.429139016984136E-002
  1.590000000000000E-002    2.403464211265241E-002
  1.600000000000000E-002    2.376212078910562E-002
  1.610000000000000E-002    2.347371767610901E-002
  1.620000000000000E-002    2.316933232854228E-002
  1.630000000000000E-002    2.284887552619701E-002
  1.640000000000000E-002    2.251227030053427E-002
  1.650000000000000E-002    2.215944910206119E-002
  1.660000000000000E-002    2.179035665193547E-002
  1.670000000000000E-002    2.140495028516327E-002
  1.680000000000000E-002    2.100319783970413E-002
  1.690000000000000E-002    2.058507877035986E-002
  1.700000000000000E-002    2.015058591818092E-002
  1.710000000000000E-002    1.969972332123176E-002
  1.720000000000000E-002    1.923250670874516E-002
  1.730000000000000E-002    1.874896606495998E-002
  1.740000000000000E-002    1.824914310595607E-002
  1.750000000000000E-002    1.773309251000238E-002
  1.760000000000000E-002    1.720088063189533E-002
  1.770000000000000E-002    1.665258897021235E-002
  1.780000000000000E-002    1.608831167805312E-002
  1.790000000000000E-002    1.550815417771412E-002
  1.800000000000000E-002    1.491223771720886E-002
  1.810000000000000E-002    1.430069576773562E-002
  1.820000000000000E-002    1.367367487651581E-002
  1.830000000000000E-002    1.303133602550732E-002
  1.840000000000000E-002    1.237385312293920E-002
  1.850000000000000E-002    1.170141335715630E-002
  1.860000000000000E-002    1.101421780998561E-002
  1.870000000000000E-002    1.031248135075851E-002