 -4.000000000000000E-002    0.000000000000000E+000
 -3.990000000000000E-002    0.000000000000000E+000
 -3.980000000000000E-002    0.000000000000000E+000
 -3.970000000000000E-002    0.000000000000000E+000
 -3.960000000000000E-002    0.000000000000000E+000
 -3.950000000000000E-002    0.000000000000000E+000
 -3.940000000000000E-002    0.000000000000000E+000
 -3.930000000000000E-002    0.000000000000000E+000
 -3.920000000000000E-002    0.000000000000000E+000
 -3.910000000000000E-002    0.000000000000000E+000
 -3.900000000000000E-002    0.000000000000000E+000
 -3.890000000000000E-002    0.000000000000000E+000
 -3.880000000000000E-002    0.000000000000000E+000
 -3.870000000000000E-002    0.000000000000000E+000
 -3.860000000000000E-002    0.000000000000000E+000
 -3.850000000000000E-002    0.000000000000000E+000
 -3.840000000000000E-002    0.000000000000000E+000
 -3.830000000000000E-002    0.000000000000000E+000
 -3.820000000000000E-002    0.000000000000000E+000
 -3.810000000000000E-002    0.000000000000000E+000
 -3.800000000000000E-002    0.000000000000000E+000
 -3.790000000000000E-002    0.000000000000000E+000
 -3.780000000000000E-002    0.000000000000000E+000
 -3.770000000000000E-002    0.000000000000000E+000
 -3.760000000000000E-002    0.000000000000000E+000
 -3.750000000000000E-002    0.000000000000000E+000
 -3.740000000000000E-002    0.000000000000000E+000
 -3.730000000000000E-002    0.000000000000000E+000
 -3.720000000000000E-002    0.000000000000000E+000
 -3.710000000000000E-002    0.000000000000000E+000
 -3.700000000000000E-002    0.000000000000000E+000
 -3.690000000000000E-002    0.000000000000000E+000
 -3.680000000000000E-002    0.000000000000000E+000
 -3.670000000000000E-002    0.000000000000000E+000
 -3.660000000000000E-002    0.000000000000000E+000
 -3.650000000000000E-002    0.000000000000000E+000
 -3.640000000000000E-002    0.000000000000000E+000
 -3.630000000000000E-002    0.000000000000000E+000
 -3.620000000000000E-002    0.000000000000000E+000
 -3.610000000000000E-002    0.000000000000000E+000
 -3.600000000000000E-002    0.000000000000000E+000
 -3.590000000000000E-002    0.000000000000000E+000
 -3.580000000000000E-002    0.000000000000000E+000
 -3.570000000000000E-002    0.000000000000000E+000
 -3.560000000000000E-002    0.000000000000000E+000
 -3.550000000000000E-002    0.000000000000000E+000
 -3.540000000000000E-002    0.000000000000000E+000
 -3.530000000000000E-002    0.000000000000000E+000
 -3.520000000000000E-002    0.000000000000000E+000
 -3.510000000000000E-002    0.000000000000000E+000
 -3.500000000000000E-002    0.000000000000000E+000
 -3.490000000000000E-002    0.000000000000000E+000
 -3.480000000000000E-002    0.000000000000000E+000
 -3.470000000000000E-002    0.000000000000000E+000
 -3.460000000000000E-002    0.000000000000000E+000
 -3.450000000000000E-002    0.000000000000000E+000
 -3.440000000000000E-002    0.000000000000000E+000
 -3.430000000000000E-002    0.000000000000000E+000
 -3.420000000000000E-002    0.000000000000000E+000
 -3.410000000000000E-002    0.000000000000000E+000
 -3.400000000000000E-002    0.000000000000000E+000
 -3.390000000000000E-002    0.000000000000000E+000
 -3.380000000000000E-002    0.000000000000000E+000
 -3.370000000000000E-002    5.516586361630292E-047
 -3.360000000000000E-002   -3.760531007316209E-047
 -3.350000000000000E-002   -3.170015455480620E-046
 -3.340000000000000E-002   -7.148274959293120E-046
 -3.330000000000000E-002   -1.477578157603195E-045
 -3.320000000000000E-002   -1.925022934654896E-045
 -3.310000000000000E-002   -3.137580654441488E-045
 -3.300000000000000E-002   -3.664991206497155E-045
 -3.290000000000000E-002   -1.944028884046646E-045
 -3.280000000000000E-002    4.505381790227600E-045
 -3.270000000000000E-002    1.966083801034294E-044
 -3.260000000000000E-002    4.720427127638450E-044
 -3.250000000000000E-002    9.332478222122414E-044
 -3.240000000000000E-002    1.595434825535552E-043
 -3.230000000000000E-002    2.414271914464028E-043
 -3.220000000000000E-002    3.176358809001891E-043
 -3.210000000000000E-002    3.431242056573140E-043
 -3.200000000000000E-002    2.380259981125391E-043
 -3.190000000000000E-002   -1.188890014330094E-043
 -3.180000000000000E-002   -8.758633982147231E-043
 -3.170000000000000E-002   -2.176400944157502E-042
 -3.160000000000000E-002   -4.081970395075563E-042
 -3.150000000000000E-002   -6.446549208476282E-042
 -3.140000000000000E-002   -8.758949129598905E-042
 -3.130000000000000E-002   -9.980448558143664E-042
 -3.120000000000000E-002   -8.473432635501641E-042
 -3.110000000000000E-002   -2.162863958064043E-042
 -3.100000000000000E-002    1.087372478337333E-041
 -3.090000000000000E-002    3.119933498838813E-041
 -3.080000000000000E-002    5.610377564187460E-041
 -3.070000000000000E-002    7.719638137056631E-041
 -3.060000000000000E-002    7.825884500571220E-041
 -3.050000000000000E-002    3.490880608742757E-041
 -3.040000000000000E-002   -8.139666362101984E-041
 -3.030000000000000E-002   -2.916621271135897E-040
 -3.020000000000000E-002   -5.865376200504391E-040
 -3.010000000000000E-002   -8.905089842036504E-040
 -3.000000000000000E-002   -1.015593105154919E-039
 -2.990000000000000E-002   -6.153039871573309E-040
 -2.980000000000000E-002    8.376523173335527E-040
 -2.970000000000000E-002    4.010332185584095E-039
 -2.960000000000000E-002    9.549432197473818E-039
 -2.950000000000000E-002    1.773756449892855E-038
 -2.940000000000000E-002    2.791144578880977E-038
 -2.930000000000000E-002    3.763200471181018E-038
 -2.920000000000000E-002    4.169209727927339E-038
 -2.910000000000000E-002    3.120663660817463E-038
 -2.900000000000000E-002   -6.748108769042342E-039
 -2.890000000000000E-002   -8.822171232101688E-038
 -2.880000000000000E-002   -2.292516760640364E-037
 -2.870000000000000E-002   -4.394684085684669E-037
 -2.860000000000000E-002   -7.116438739156878E-037
 -2.850000000000000E-002   -1.007137248191782E-036
 -2.840000000000000E-002   -1.238649662346071E-036
 -2.830000000000000E-002   -1.253982677829824E-036
 -2.820000000000000E-002   -8.275018962756155E-037
 -2.810000000000000E-002    3.306740996234016E-037
 -2.800000000000000E-002    2.534990531948905E-036
 -2.790000000000000E-002    6.040737053792969E-036
 -2.780000000000000E-002    1.090582193207382E-035
 -2.770000000000000E-002    1.679662217778707E-035
 -2.760000000000000E-002    2.275329660669488E-035
 -2.750000000000000E-002    2.695526736122239E-035
 -2.740000000000000E-002    2.655995232391863E-035
 -2.730000000000000E-002    1.772258661142245E-035
 -2.720000000000000E-002   -4.066803701824625E-036
 -2.710000000000000E-002   -4.318478179551539E-035
 -2.700000000000000E-002   -1.024979701688608E-034
 -2.690000000000000E-002   -1.813748917861565E-034
 -2.680000000000000E-002   -2.732030003677127E-034
 -2.670000000000000E-002   -3.627500377265692E-034
 -2.660000000000000E-002   -4.239882305651209E-034
 -2.650000000000000E-002   -4.192949063718222E-034
 -2.640000000000000E-002   -3.011851863425200E-034
 -2.630000000000000E-002   -1.781745795620480E-035
 -2.620000000000000E-002    4.766758744627991E-034
 -2.610000000000000E-002    1.206563505130679E-033
 -2.600000000000000E-002    2.154190014052391E-033
 -2.590000000000000E-002    3.237092288647942E-033
 -2.580000000000000E-002    4.286617381668767E-033
 -2.570000000000000E-002    5.034118620394329E-033
 -2.560000000000000E-002    5.112462502620123E-033
 -2.550000000000000E-002    4.081282887345032E-033
 -2.540000000000000E-002    1.483477781828937E-033
 -2.530000000000000E-002   -3.062743088384284E-033
 -2.520000000000000E-002   -9.737792426119761E-033
 -2.510000000000000E-002   -1.837052349673801E-032
 -2.500000000000000E-002   -2.828405872213367E-032
 -2.490000000000000E-002   -3.816827885298963E-032
 -2.480000000000000E-002   -4.601825576280861E-032
 -2.470000000000000E-002   -4.918182061832292E-032
 -2.460000000000000E-002   -4.455597324923832E-032
 -2.450000000000000E-002   -2.895864271023227E-032
 -2.440000000000000E-002    3.213618859387958E-034
 -2.430000000000000E-002    4.482595137763890E-032
 -2.420000000000000E-002    1.041486423906096E-031
 -2.410000000000000E-002    1.751787185075001E-031
 -2.400000000000000E-002    2.515001769238286E-031
 -2.390000000000000E-002    3.230863016376366E-031
 -2.380000000000000E-002    3.764171876285740E-031
 -2.370000000000000E-002    3.951090152514173E-031
 -2.360000000000000E-002    3.610878623281955E-031
 -2.350000000000000E-002    2.562766979518792E-031
 -2.340000000000000E-002    6.471659504935623E-032
 -2.330000000000000E-002   -2.249741087602021E-031
 -2.320000000000000E-002   -6.168652458547288E-031
 -2.310000000000000E-002   -1.104689304013836E-030
 -2.300000000000000E-002   -1.668410439870218E-030
 -2.290000000000000E-002   -2.270204397579144E-030
 -2.280000000000000E-002   -2.849720146168313E-030
 -2.270000000000000E-002   -3.318755333293343E-030
 -2.260000000000000E-002   -3.556049066278590E-030
 -2.250000000000000E-002   -3.403788429041858E-030
 -2.240000000000000E-002   -2.668608164651949E-030
 -2.230000000000000E-002   -1.131092384600097E-030
 -2.220000000000000E-002    1.431261688703768E-030
 -2.210000000000000E-002    5.202571550655302E-030
 -2.200000000000000E-002    1.026487258395922E-029
 -2.190000000000000E-002    1.651190177145456E-029
 -2.180000000000000E-002    2.354587211502431E-029
 -2.170000000000000E-002    3.057090251771518E-029
 -2.160000000000000E-002    3.630651005465700E-029
 -2.150000000000000E-002    3.895419562607234E-029
 -2.140000000000000E-002    3.625730174207897E-029
 -2.130000000000000E-002    2.569559005511608E-029
 -2.120000000000000E-002    4.848103655839057E-030
 -2.110000000000000E-002   -2.806224226037959E-029
 -2.100000000000000E-002   -7.346264940480851E-029
 -2.090000000000000E-002   -1.296295864578173E-028
 -2.080000000000000E-002   -1.919139642036613E-028
 -2.070000000000000E-002   -2.521667972246659E-028
 -2.060000000000000E-002   -2.985804890037552E-028
 -2.050000000000000E-002   -3.161736757297508E-028
 -2.040000000000000E-002   -2.881175166251114E-028
 -2.030000000000000E-002   -1.980163654160131E-028
 -2.020000000000000E-002   -3.311181184328520E-029
 -2.010000000000000E-002    2.118179772448474E-028
 -2.000000000000000E-002    5.303209110527871E-028
 -1.990000000000000E-002    9.005785319572930E-028
 -1.980000000000000E-002    1.283016524507315E-027
 -1.970000000000000E-002    1.620145383797874E-027
 -1.960000000000000E-002    1.839472398919779E-027
 -1.950000000000000E-002    1.860045548563216E-027
 -1.940000000000000E-002    1.602713791902930E-027
 -1.930000000000000E-002    1.003544073776937E-027
 -1.920000000000000E-002    2.910037514931430E-029
 -1.910000000000000E-002   -1.308411551571860E-027
 -1.900000000000000E-002   -2.938657936556170E-027
 -1.890000000000000E-002   -4.726075772578190E-027
 -1.880000000000000E-002   -6.470634568562688E-027
 -1.870000000000000E-002   -7.918190528782220E-027
 -1.860000000000000E-002   -8.780954660114976E-027
 -1.850000000000000E-002   -8.767062578882508E-027
 -1.840000000000000E-002   -7.616671411434575E-027
 -1.830000000000000E-002   -5.140687039231583E-027
 -1.820000000000000E-002   -1.257526613762100E-027
 -1.810000000000000E-002    3.976543107519636E-027
 -1.800000000000000E-002    1.034688386082274E-026
 -1.790000000000000E-002    1.747136958479612E-026
 -1.780000000000000E-002    2.480213303984040E-026
 -1.770000000000000E-002    3.163590415165469E-026
 -1.760000000000000E-002    3.713006783188505E-026
 -1.750000000000000E-002    4.032286546492686E-026
 -1.740000000000000E-002    4.015959349098343E-026
 -1.730000000000000E-002    3.553201370538355E-026
 -1.720000000000000E-002    2.534431278467601E-026
 -1.710000000000000E-002    8.623871110043589E-027
 -1.700000000000000E-002   -1.530370522857979E-026
 -1.690000000000000E-002   -4.656136309223221E-026
 -1.680000000000000E-002   -8.438964713075096E-026
 -1.670000000000000E-002   -1.267626507560323E-025
 -1.660000000000000E-002   -1.700078901023817E-025
 -1.650000000000000E-002   -2.085234496852279E-025
 -1.640000000000000E-002   -2.347175778909428E-025
 -1.630000000000000E-002   -2.393136716696730E-025
 -1.620000000000000E-002   -2.121549288051952E-025
 -1.610000000000000E-002   -1.435973368428365E-025
 -1.600000000000000E-002   -2.649166733523991E-026
 -1.590000000000000E-002    1.413747523169692E-025
 -1.580000000000000E-002    3.546652669829051E-025
 -1.570000000000000E-002    5.981640140002973E-025
 -1.560000000000000E-002    8.453208249805480E-025
 -1.550000000000000E-002    1.058327676551905E-024
 -1.540000000000000E-002    1.190338824327551E-024
 -1.530000000000000E-002    1.190251340868407E-024
 -1.520000000000000E-002    1.010109228189275E-024
 -1.510000000000000E-002    6.146928052622170E-025
 -1.500000000000000E-002   -7.738014741767857E-027
 -1.490000000000000E-002   -8.351743951579832E-025
 -1.480000000000000E-002   -1.804167146804624E-024
 -1.470000000000000E-002   -2.807031798606105E-024
 -1.460000000000000E-002   -3.696095099718706E-024
 -1.450000000000000E-002   -4.296469325165124E-024
 -1.440000000000000E-002   -4.427679360358229E-024
 -1.430000000000000E-002   -3.932877645908881E-024
 -1.420000000000000E-002   -2.712549346704622E-024
 -1.410000000000000E-002   -7.578410605560496E-025
 -1.400000000000000E-002    1.822704008980753E-024
 -1.390000000000000E-002    4.789750749468104E-024
 -1.380000000000000E-002    7.779218211681115E-024
 -1.370000000000000E-002    1.033188368517916E-023
 -1.360000000000000E-002    1.194731175305314E-023
 -1.350000000000000E-002    1.215850663572540E-023
 -1.340000000000000E-002    1.061886871568801E-023
 -1.330000000000000E-002    7.188593404866638E-024
 -1.320000000000000E-002    2.004633321848620E-024
 -1.310000000000000E-002   -4.482385672751241E-024
 -1.300000000000000E-002   -1.151851706395408E-023
 -1.290000000000000E-002   -1.811267176195094E-023
 -1.280000000000000E-002   -2.315844766758502E-023
 -1.270000000000000E-002   -2.560080954616664E-023
 -1.260000000000000E-002   -2.462590104938939E-023
 -1.250000000000000E-002   -1.984325627394971E-023
 -1.240000000000000E-002   -1.142487259451314E-023
 -1.230000000000000E-002   -1.668964219346248E-025
 -1.220000000000000E-002    1.255181550891554E-023
 -1.210000000000000E-002    2.492445272280034E-023
 -1.200000000000000E-002    3.497370307294199E-023
 -1.190000000000000E-002    4.087839104889928E-023
 -1.180000000000000E-002    4.131546604543494E-023
 -1.170000000000000E-002    3.575052081971879E-023
 -1.160000000000000E-002    2.460899192822225E-023
 -1.150000000000000E-002    9.273982258626792E-024
 -1.140000000000000E-002   -8.114559316314546E-024
 -1.130000000000000E-002   -2.504394970685091E-023
 -1.120000000000000E-002   -3.913486625318443E-023
 -1.110000000000000E-002   -4.866655456762167E-023
 -1.100000000000000E-002   -5.299174536783189E-023
 -1.090000000000000E-002   -5.271072549239123E-023
 -1.080000000000000E-002   -4.950505848672455E-023
 -1.070000000000000E-002   -4.559551427913504E-023
 -1.060000000000000E-002   -4.287991409036793E-023
 -1.050000000000000E-002   -4.190939095899222E-023
 -1.040000000000000E-002   -4.095515898632958E-023
 -1.030000000000000E-002   -3.547604858551935E-023
 -1.020000000000000E-002   -1.829549465771816E-023
 -1.010000000000000E-002    1.928265388759546E-023
 -1.000000000000000E-002    8.535224484168045E-023
 -9.899999999999999E-003    1.844419561392970E-022
 -9.800000000000000E-003    3.141465695648825E-022
 -9.699999999999999E-003    4.620444599364667E-022
 -9.599999999999999E-003    6.037748943006044E-022
 -9.500000000000000E-003    7.031896379206613E-022
 -9.399999999999999E-003    7.153420115956825E-022
 -9.299999999999999E-003    5.927070622306024E-022
 -9.200000000000000E-003    2.944523891613117E-022
 -9.099999999999999E-003   -2.021366748750234E-022
 -8.999999999999999E-003   -8.897216866766234E-022
 -8.900000000000000E-003   -1.720744882690233E-021
 -8.799999999999999E-003   -2.601665928004134E-021
 -8.699999999999999E-003   -3.394166422126437E-021
 -8.600000000000000E-003   -3.925279737797501E-021
 -8.499999999999999E-003   -4.007246250156764E-021
 -8.399999999999999E-003   -3.466265700688052E-021
 -8.300000000000000E-003   -2.177407251888063E-021
 -8.199999999999999E-003   -1.010582305228375E-022
 -8.100000000000000E-003    2.685192659532045E-021
 -8.000000000000000E-003    5.966067713260023E-021
 -7.899999999999999E-003    9.385963579339077E-021
 -7.800000000000000E-003    1.246898471949336E-020
 -7.699999999999999E-003    1.466359230998072E-020
 -7.599999999999999E-003    1.540995694064404E-020
 -7.499999999999999E-003    1.422377863459830E-020
 -7.399999999999999E-003    1.078627197798223E-020
 -7.299999999999999E-003    5.026935117879940E-021
 -7.199999999999999E-003   -2.815525448835980E-021
 -7.100000000000000E-003   -1.216767220419149E-020
 -6.999999999999999E-003   -2.214110545268765E-020
 -6.899999999999999E-003   -3.160146640760388E-020
 -6.800000000000000E-003   -3.928300080422385E-020
 -6.699999999999999E-003   -4.393698353848915E-020
 -6.599999999999999E-003   -4.449524215689843E-020
 -6.499999999999999E-003   -4.022539779141459E-020
 -6.399999999999999E-003   -3.085354867573786E-020
 -6.299999999999999E-003   -1.663360990113935E-020
 -6.199999999999999E-003    1.649770783019341E-021
 -6.100000000000000E-003    2.274665346053537E-020
 -5.999999999999999E-003    4.506507280150226E-020
 -5.899999999999999E-003    6.683001051451617E-020
 -5.800000000000000E-003    8.624812163821654E-020
 -5.699999999999999E-003    1.016462374829192E-019
 -5.599999999999999E-003    1.115573083795085E-019
 -5.499999999999999E-003    1.147400627830965E-019
 -5.399999999999999E-003    1.101374674078926E-019
 -5.299999999999999E-003    9.679978420530719E-020
 -5.199999999999999E-003    7.381668386206645E-020
 -5.099999999999999E-003    4.031413216604137E-020
 -4.999999999999999E-003   -4.429647249005185E-021
 -4.899999999999999E-003   -6.071074968404310E-020
 -4.799999999999999E-003   -1.279626240865383E-019
 -4.699999999999999E-003   -2.041936809595974E-019
 -4.599999999999999E-003   -2.853880482779359E-019
 -4.499999999999999E-003   -3.650044042955178E-019
 -4.399999999999999E-003   -4.337392445598046E-019
 -4.299999999999999E-003   -4.797255033831379E-019
 -4.199999999999999E-003   -4.893080734953552E-019
 -4.099999999999999E-003   -4.484687979882693E-019
 -3.999999999999999E-003   -3.448706740953743E-019
 -3.899999999999999E-003   -1.703639326564180E-019
 -3.799999999999999E-003    7.633661242400163E-020
 -3.699999999999999E-003    3.872079222327060E-019
 -3.599999999999999E-003    7.431841543426037E-019
 -3.499999999999999E-003    1.113610958462333E-018
 -3.399999999999999E-003    1.457289952346168E-018
 -3.299999999999999E-003    1.725348262266313E-018
 -3.199999999999999E-003    1.865930195884540E-018
 -3.099999999999999E-003    1.830416738408892E-018
 -2.999999999999999E-003    1.580580719552426E-018
 -2.899999999999999E-003    1.095829493734902E-018
 -2.799999999999999E-003    3.795170238927003E-019
 -2.699999999999999E-003   -5.367274223934980E-019
 -2.599999999999999E-003   -1.591582995888355E-018
 -2.499999999999999E-003   -2.696178543516000E-018
 -2.399999999999999E-003   -3.740014899742853E-018
 -2.299999999999999E-003   -4.600386064042185E-018
 -2.199999999999999E-003   -5.154495066759532E-018
 -2.099999999999999E-003   -5.293015886211527E-018
 -1.999999999999999E-003   -4.933550665341760E-018
 -1.899999999999999E-003   -4.032344189444628E-018
 -1.799999999999999E-003   -2.592774287619211E-018
 -1.699999999999999E-003   -6.695193897054441E-019
 -1.599999999999999E-003    1.632138222981307E-018
 -1.499999999999999E-003    4.161769783854045E-018
 -1.399999999999999E-003    6.733301865397722E-018
 -1.299999999999999E-003    9.137383564518163E-018
 -1.199999999999999E-003    1.115521816546363E-017
 -1.099999999999999E-003    1.257252847197559E-017
 -9.999999999999989E-004    1.319268356963062E-017
 -8.999999999999990E-004    1.284856397943857E-017
 -7.999999999999990E-004    1.141337905582677E-017
 -6.999999999999989E-004    8.811165068414378E-018
 -5.999999999999990E-004    5.027930701039712E-018
 -4.999999999999989E-004    1.242184160104877E-019
 -3.999999999999989E-004   -5.750818177054486E-018
 -2.999999999999989E-004   -1.234485974846042E-017
 -1.999999999999989E-004   -1.928982841465881E-017
 -9.999999999999892E-005   -2.609509441925304E-017
  1.084202172485504E-018   -3.215137931482287E-017
  1.000000000000011E-004   -3.675056107984481E-017
  2.000000000000011E-004   -3.912583941666819E-017
  3.000000000000011E-004   -3.851478670013470E-017
  4.000000000000011E-004   -3.424459886221773E-017
  5.000000000000011E-004   -2.583475657242234E-017
  6.000000000000011E-004   -1.310782464693416E-017
  7.000000000000011E-004    3.705199014991668E-018
  8.000000000000011E-004    2.388159622550260E-017
  9.000000000000012E-004    4.616350757106961E-017
  1.000000000000001E-003    6.877076906027511E-017
  1.100000000000001E-003    8.948204630663410E-017
  1.200000000000001E-003    1.057892556063204E-016
  1.300000000000001E-003    1.151208862930246E-016
  1.400000000000001E-003    1.151194081662844E-016
  1.500000000000001E-003    1.039478768538168E-016
  1.600000000000001E-003    8.059243337878742E-017
  1.700000000000001E-003    4.512263449926268E-017
  1.800000000000001E-003   -1.128932029478929E-018
  1.900000000000001E-003   -5.550116868151514E-017
  2.000000000000001E-003   -1.140766264538562E-016
  2.100000000000001E-003   -1.719005717277902E-016
  2.200000000000001E-003   -2.233392943808559E-016
  2.300000000000001E-003   -2.625527905416720E-016
  2.400000000000001E-003   -2.840415954286500E-016
  2.500000000000001E-003   -2.832162802440052E-016
  2.600000000000001E-003   -2.569330558313897E-016
  2.700000000000001E-003   -2.039400637144340E-016
  2.800000000000001E-003   -1.251873204647463E-016
  2.900000000000001E-003   -2.396632228313978E-017
  3.000000000000001E-003    9.413772092617132E-017
  3.100000000000001E-003    2.214805297547323E-016
  3.200000000000001E-003    3.487642952389371E-016
  3.300000000000001E-003    4.655860549499885E-016
  3.400000000000001E-003    5.610941475795470E-016
  3.500000000000001E-003    6.247169794529127E-016
  3.600000000000001E-003    6.469297048421373E-016
  3.700000000000001E-003    6.200291158514049E-016
  3.800000000000001E-003    5.388901854929761E-016
  3.900000000000001E-003    4.016759387023014E-016
  4.000000000000001E-003    2.104676309699857E-016
  4.100000000000001E-003   -2.823082390068365E-017
  4.200000000000001E-003   -3.031744388784434E-016
  4.300000000000001E-003   -5.983220407748559E-016
  4.400000000000001E-003   -8.931309367089100E-016
  4.500000000000001E-003   -1.163288686816868E-015
  4.600000000000002E-003   -1.381950857940567E-015
  4.700000000000001E-003   -1.521517967393729E-015
  4.800000000000001E-003   -1.555925607870655E-015
  4.900000000000002E-003   -1.463346271031482E-015
  5.000000000000001E-003   -1.229116999033405E-015
  5.100000000000001E-003   -8.486211979884801E-016
  5.200000000000001E-003   -3.297882628507264E-016
  5.300000000000002E-003    3.051668773721265E-016
  5.400000000000001E-003    1.019133080069889E-015
  5.500000000000001E-003    1.760932868096742E-015
  5.600000000000002E-003    2.467792563973924E-015
  5.700000000000001E-003    3.069489098616345E-015
  5.800000000000001E-003    3.494016179604586E-015
  5.900000000000002E-003    3.674401960100154E-015
  6.000000000000001E-003    3.556112656701513E-015
  6.100000000000001E-003    3.104327905297789E-015
  6.200000000000002E-003    2.310279239609013E-015
  6.300000000000002E-003    1.195848385892407E-015
  6.400000000000001E-003   -1.842859350336309E-016
  6.500000000000001E-003   -1.743470715442107E-015
  6.600000000000002E-003   -3.367125821681664E-015
  6.700000000000001E-003   -4.919948184116090E-015
  6.800000000000001E-003   -6.255876071953617E-015
  6.900000000000002E-003   -7.230102342354576E-015
  7.000000000000001E-003   -7.712172486500939E-015
  7.100000000000001E-003   -7.599047052700418E-015
  7.200000000000002E-003   -6.826950050196861E-015
  7.300000000000002E-003   -5.380886075655913E-015
  7.400000000000001E-003   -3.300873782880333E-015
  7.500000000000001E-003   -6.841887971421801E-016
  7.600000000000002E-003    2.316797279650215E-015
  7.700000000000001E-003    5.501262377302610E-015
  7.800000000000001E-003    8.630849902577606E-015
  7.900000000000001E-003    1.144435064954457E-014
  8.000000000000002E-003    1.367541283802701E-014
  8.100000000000001E-003    1.507234965743556E-014
  8.200000000000001E-003    1.541896148499456E-014
  8.300000000000002E-003    1.455516066399588E-014
  8.400000000000001E-003    1.239605820962590E-014
  8.500000000000002E-003    8.948109898914714E-015
  8.600000000000002E-003    4.320816204886797E-015
  8.700000000000001E-003   -1.267521171581472E-015
  8.800000000000002E-003   -7.491418806061683E-015
  8.900000000000002E-003   -1.392840597768684E-014
  9.000000000000001E-003   -2.007860889167280E-014
  9.100000000000002E-003   -2.539392675891389E-014
  9.200000000000002E-003   -2.931619862831040E-014
  9.300000000000001E-003   -3.132275349331235E-014
  9.400000000000002E-003   -3.097667708285786E-014
  9.500000000000001E-003   -2.797804340590697E-014
  9.600000000000001E-003   -2.221147278220088E-014
  9.700000000000002E-003   -1.378480011843315E-014
  9.800000000000001E-003   -3.053527566910320E-015
  9.900000000000001E-003    9.373806932786973E-015
  1.000000000000000E-002    2.265303975157961E-014
  1.010000000000000E-002    3.574656801807588E-014
  1.020000000000000E-002    4.749000562217044E-014
  1.030000000000000E-002    5.668043159000371E-014
  1.040000000000000E-002    6.218064913146208E-014
  1.050000000000000E-002    6.303148553400086E-014
  1.060000000000000E-002    5.856223649306905E-014
  1.070000000000000E-002    4.848832636584017E-014
  1.080000000000000E-002    3.298525533614805E-014
  1.090000000000000E-002    1.272895434713969E-014
  1.100000000000000E-002   -1.110498144383722E-014
  1.110000000000000E-002   -3.688752645762114E-014
  1.120000000000000E-002   -6.262838952568066E-014
  1.130000000000000E-002   -8.611023690664229E-014
  1.140000000000000E-002   -1.050568943748037E-013
  1.150000000000000E-002   -1.173238118068299E-013
  1.160000000000000E-002   -1.210960650713776E-013
  1.170000000000000E-002   -1.150776723794185E-013
  1.180000000000000E-002   -9.865531548111450E-014
  1.190000000000000E-002   -7.202090392514101E-014
  1.200000000000000E-002   -3.623940667461735E-014
  1.210000000000000E-002    6.748024550943823E-015
  1.220000000000000E-002    5.419133678889601E-014
  1.230000000000000E-002    1.026700527166599E-013
  1.240000000000000E-002    1.482986188368790E-013
  1.250000000000000E-002    1.869890724123070E-013
  1.260000000000000E-002    2.147567035498174E-013
  1.270000000000000E-002    2.280500137475089E-013
  1.280000000000000E-002    2.240829060187241E-013
  1.290000000000000E-002    2.011444757610846E-013
  1.300000000000000E-002    1.588604715889743E-013
  1.310000000000000E-002    9.838116070905276E-014
  1.320000000000000E-002    2.247195417397284E-014
  1.330000000000000E-002   -6.451250772772866E-014
  1.340000000000000E-002   -1.567840649113997E-013
  1.350000000000000E-002   -2.474117635592580E-013
  1.360000000000000E-002   -3.287427005671225E-013
  1.370000000000000E-002   -3.929367978545254E-013
  1.380000000000000E-002   -4.325873725144976E-013
  1.390000000000000E-002   -4.413878467410405E-013
  1.400000000000000E-002   -4.147948804724410E-013
  1.410000000000000E-002   -3.506308312959348E-013
  1.420000000000000E-002   -2.495660221636248E-013
  1.430000000000000E-002   -1.154222345630554E-013
  1.440000000000000E-002    4.475252135753531E-014
  1.450000000000000E-002    2.208748275406603E-013
  1.460000000000000E-002    4.002998364736283E-013
  1.470000000000000E-002    5.685730697111111E-013
  1.480000000000000E-002    7.104286714225479E-013
  1.490000000000000E-002    8.109767668130280E-013
  1.500000000000000E-002    8.569987859294876E-013
  1.510000000000000E-002    8.382504845479756E-013
  1.520000000000000E-002    7.486609968081944E-013
  1.530000000000000E-002    5.873126429902943E-013
  1.540000000000000E-002    3.590945319881452E-013
  1.550000000000000E-002    7.493957703747145E-014
  1.560000000000000E-002   -2.484173703384397E-013
  1.570000000000000E-002   -5.891880819644126E-013
  1.580000000000000E-002   -9.217733203232720E-013
  1.590000000000000E-002   -1.218443853471486E-012
  1.600000000000000E-002   -1.451363621083135E-012
  1.610000000000000E-002   -1.594822793727794E-012
  1.620000000000000E-002   -1.627518932391379E-012
  1.630000000000000E-002   -1.534709518139777E-012
  1.640000000000000E-002   -1.310051666440232E-012
  1.650000000000000E-002   -9.569573054190436E-013
  1.660000000000000E-002   -4.893125971812640E-013
  1.670000000000000E-002    6.855130598473144E-014
  1.680000000000000E-002    6.827026390155423E-013
  1.690000000000000E-002    1.311279291516920E-012
  1.700000000000000E-002    1.906933789408402E-012
  1.710000000000000E-002    2.419939723225198E-012
  1.720000000000000E-002    2.801787217620295E-012
  1.730000000000000E-002    3.009041466305254E-012
  1.740000000000000E-002    3.007197742761260E-012
  1.750000000000000E-002    2.774241102166802E-012
  1.760000000000000E-002    2.303610991017741E-012
  1.770000000000000E-002    1.606284998493592E-012
  1.780000000000000E-002    7.117348630726087E-013
  1.790000000000000E-002   -3.324346542656563E-013
  1.800000000000000E-002   -1.462272205730587E-012
  1.810000000000000E-002   -2.600701551204014E-012
  1.820000000000000E-002   -3.662079823196043E-012
  1.830000000000000E-002   -4.557878568187343E-012
  1.840000000000000E-002   -5.203165283536551E-012
  1.850000000000000E-002   -5.523462673678061E-012
  1.860000000000000E-002   -5.461495169980692E-012
  1.870000000000000E-002   -4.983282833692984E-012