 -4.000000000000000E-002    0.000000000000000E+000
 -3.990000000000000E-002    0.000000000000000E+000
 -3.980000000000000E-002    0.000000000000000E+000
 -3.970000000000000E-002    0.000000000000000E+000
 -3.960000000000000E-002    0.000000000000000E+000
 -3.950000000000000E-002    0.000000000000000E+000
 -3.940000000000000E-002    0.000000000000000E+000
 -3.930000000000000E-002    0.000000000000000E+000
 -3.920000000000000E-002    0.000000000000000E+000
 -3.910000000000000E-002    0.000000000000000E+000
 -3.900000000000000E-002    0.000000000000000E+000
 -3.890000000000000E-002    0.000000000000000E+000
 -3.880000000000000E-002    0.000000000000000E+000
 -3.870000000000000E-002    0.000000000000000E+000
 -3.860000000000000E-002    0.000000000000000E+000
 -3.850000000000000E-002    0.000000000000000E+000
 -3.840000000000000E-002    0.000000000000000E+000
 -3.830000000000000E-002    0.000000000000000E+000
 -3.820000000000000E-002    0.000000000000000E+000
 -3.810000000000000E-002    0.000000000000000E+000
 -3.800000000000000E-002    0.000000000000000E+000
 -3.790000000000000E-002    0.000000000000000E+000
 -3.780000000000000E-002    0.000000000000000E+000
 -3.770000000000000E-002    0.000000000000000E+000
 -3.760000000000000E-002    0.000000000000000E+000
 -3.750000000000000E-002    0.000000000000000E+000
 -3.740000000000000E-002    0.000000000000000E+000
 -3.730000000000000E-002    0.000000000000000E+000
 -3.720000000000000E-002    0.000000000000000E+000
 -3.710000000000000E-002    0.000000000000000E+000
 -3.700000000000000E-002    0.000000000000000E+000
 -3.690000000000000E-002    0.000000000000000E+000
 -3.680000000000000E-002    0.000000000000000E+000
 -3.670000000000000E-002    0.000000000000000E+000
 -3.660000000000000E-002    0.000000000000000E+000
 -3.650000000000000E-002    0.000000000000000E+000
 -3.640000000000000E-002    0.000000000000000E+000
 -3.630000000000000E-002    0.000000000000000E+000
 -3.620000000000000E-002    0.000000000000000E+000
 -3.610000000000000E-002    0.000000000000000E+000
 -3.600000000000000E-002    0.000000000000000E+000
 -3.590000000000000E-002    0.000000000000000E+000
 -3.580000000000000E-002    0.000000000000000E+000
 -3.570000000000000E-002    0.000000000000000E+000
 -3.560000000000000E-002    0.000000000000000E+000
 -3.550000000000000E-002    0.000000000000000E+000
 -3.540000000000000E-002    0.000000000000000E+000
 -3.530000000000000E-002    0.000000000000000E+000
 -3.520000000000000E-002    0.000000000000000E+000
 -3.510000000000000E-002    0.000000000000000E+000
 -3.500000000000000E-002    0.000000000000000E+000
 -3.490000000000000E-002    0.000000000000000E+000
 -3.480000000000000E-002    0.000000000000000E+000
 -3.470000000000000E-002    0.000000000000000E+000
 -3.460000000000000E-002    0.000000000000000E+000
 -3.450000000000000E-002    0.000000000000000E+000
 -3.440000000000000E-002    0.000000000000000E+000
 -3.430000000000000E-002    0.000000000000000E+000
 -3.420000000000000E-002    0.000000000000000E+000
 -3.410000000000000E-002    0.000000000000000E+000
 -3.400000000000000E-002    0.000000000000000E+000
 -3.390000000000000E-002    0.000000000000000E+000
 -3.380000000000000E-002    0.000000000000000E+000
 -3.370000000000000E-002    0.000000000000000E+000
 -3.360000000000000E-002    0.000000000000000E+000
 -3.350000000000000E-002    0.000000000000000E+000
 -3.340000000000000E-002    0.000000000000000E+000
 -3.330000000000000E-002    0.000000000000000E+000
 -3.320000000000000E-002    0.000000000000000E+000
 -3.310000000000000E-002    0.000000000000000E+000
 -3.300000000000000E-002    0.000000000000000E+000
 -3.290000000000000E-002    0.000000000000000E+000
 -3.280000000000000E-002    0.000000000000000E+000
 -3.270000000000000E-002    0.000000000000000E+000
 -3.260000000000000E-002    0.000000000000000E+000
 -3.250000000000000E-002    0.000000000000000E+000
 -3.240000000000000E-002    0.000000000000000E+000
 -3.230000000000000E-002    0.000000000000000E+000
 -3.220000000000000E-002    0.000000000000000E+000
 -3.210000000000000E-002    0.000000000000000E+000
 -3.200000000000000E-002    0.000000000000000E+000
 -3.190000000000000E-002    0.000000000000000E+000
 -3.180000000000000E-002    0.000000000000000E+000
 -3.170000000000000E-002    0.000000000000000E+000
 -3.160000000000000E-002    0.000000000000000E+000
 -3.150000000000000E-002    0.000000000000000E+000
 -3.140000000000000E-002    0.000000000000000E+000
 -3.130000000000000E-002    0.000000000000000E+000
 -3.120000000000000E-002    0.000000000000000E+000
 -3.110000000000000E-002    0.000000000000000E+000
 -3.100000000000000E-002    0.000000000000000E+000
 -3.090000000000000E-002    0.000000000000000E+000
 -3.080000000000000E-002    0.000000000000000E+000
 -3.070000000000000E-002    0.000000000000000E+000
 -3.060000000000000E-002    0.000000000000000E+000
 -3.050000000000000E-002    0.000000000000000E+000
 -3.040000000000000E-002    0.000000000000000E+000
 -3.030000000000000E-002    0.000000000000000E+000
 -3.020000000000000E-002    0.000000000000000E+000
 -3.010000000000000E-002    0.000000000000000E+000
 -3.000000000000000E-002    0.000000000000000E+000
 -2.990000000000000E-002    0.000000000000000E+000
 -2.980000000000000E-002    0.000000000000000E+000
 -2.970000000000000E-002    0.000000000000000E+000
 -2.960000000000000E-002    0.000000000000000E+000
 -2.950000000000000E-002    0.000000000000000E+000
 -2.940000000000000E-002    0.000000000000000E+000
 -2.930000000000000E-002    0.000000000000000E+000
 -2.920000000000000E-002    0.000000000000000E+000
 -2.910000000000000E-002    0.000000000000000E+000
 -2.900000000000000E-002    0.000000000000000E+000
 -2.890000000000000E-002    0.000000000000000E+000
 -2.880000000000000E-002    0.000000000000000E+000
 -2.870000000000000E-002    0.000000000000000E+000
 -2.860000000000000E-002    0.000000000000000E+000
 -2.850000000000000E-002    0.000000000000000E+000
 -2.840000000000000E-002    0.000000000000000E+000
 -2.830000000000000E-002    0.000000000000000E+000
 -2.820000000000000E-002    0.000000000000000E+000
 -2.810000000000000E-002    0.000000000000000E+000
 -2.800000000000000E-002    0.000000000000000E+000
 -2.790000000000000E-002    0.000000000000000E+000
 -2.780000000000000E-002    0.000000000000000E+000
 -2.770000000000000E-002    0.000000000000000E+000
 -2.760000000000000E-002    0.000000000000000E+000
 -2.750000000000000E-002    0.000000000000000E+000
 -2.740000000000000E-002    0.000000000000000E+000
 -2.730000000000000E-002    0.000000000000000E+000
 -2.720000000000000E-002    0.000000000000000E+000
 -2.710000000000000E-002    0.000000000000000E+000
 -2.700000000000000E-002    0.000000000000000E+000
 -2.690000000000000E-002    0.000000000000000E+000
 -2.680000000000000E-002    0.000000000000000E+000
 -2.670000000000000E-002    0.000000000000000E+000
 -2.660000000000000E-002    0.000000000000000E+000
 -2.650000000000000E-002    0.000000000000000E+000
 -2.640000000000000E-002    0.000000000000000E+000
 -2.630000000000000E-002    0.000000000000000E+000
 -2.620000000000000E-002    0.000000000000000E+000
 -2.610000000000000E-002    0.000000000000000E+000
 -2.600000000000000E-002    0.000000000000000E+000
 -2.590000000000000E-002    0.000000000000000E+000
 -2.580000000000000E-002    0.000000000000000E+000
 -2.570000000000000E-002    0.000000000000000E+000
 -2.560000000000000E-002    0.000000000000000E+000
 -2.550000000000000E-002    0.000000000000000E+000
 -2.540000000000000E-002    0.000000000000000E+000
 -2.530000000000000E-002    0.000000000000000E+000
 -2.520000000000000E-002    0.000000000000000E+000
 -2.510000000000000E-002    0.000000000000000E+000
 -2.500000000000000E-002    0.000000000000000E+000
 -2.490000000000000E-002    0.000000000000000E+000
 -2.480000000000000E-002    0.000000000000000E+000
 -2.470000000000000E-002    0.000000000000000E+000
 -2.460000000000000E-002    0.000000000000000E+000
 -2.450000000000000E-002    0.000000000000000E+000
 -2.440000000000000E-002    0.000000000000000E+000
 -2.430000000000000E-002    0.000000000000000E+000
 -2.420000000000000E-002    0.000000000000000E+000
 -2.410000000000000E-002    0.000000000000000E+000
 -2.400000000000000E-002    0.000000000000000E+000
 -2.390000000000000E-002    0.000000000000000E+000
 -2.380000000000000E-002    0.000000000000000E+000
 -2.370000000000000E-002    0.000000000000000E+000
 -2.360000000000000E-002    0.000000000000000E+000
 -2.350000000000000E-002    0.000000000000000E+000
 -2.340000000000000E-002    0.000000000000000E+000
 -2.330000000000000E-002    0.000000000000000E+000
 -2.320000000000000E-002    0.000000000000000E+000
 -2.310000000000000E-002    0.000000000000000E+000
 -2.300000000000000E-002    0.000000000000000E+000
 -2.290000000000000E-002    0.000000000000000E+000
 -2.280000000000000E-002    0.000000000000000E+000
 -2.270000000000000E-002    0.000000000000000E+000
 -2.260000000000000E-002    0.000000000000000E+000
 -2.250000000000000E-002    0.000000000000000E+000
 -2.240000000000000E-002    0.000000000000000E+000
 -2.230000000000000E-002    0.000000000000000E+000
 -2.220000000000000E-002    0.000000000000000E+000
 -2.210000000000000E-002    0.000000000000000E+000
 -2.200000000000000E-002    0.000000000000000E+000
 -2.190000000000000E-002    0.000000000000000E+000
 -2.180000000000000E-002    0.000000000000000E+000
 -2.170000000000000E-002    0.000000000000000E+000
 -2.160000000000000E-002    0.000000000000000E+000
 -2.150000000000000E-002    0.000000000000000E+000
 -2.140000000000000E-002    0.000000000000000E+000
 -2.130000000000000E-002    0.000000000000000E+000
 -2.120000000000000E-002    0.000000000000000E+000
 -2.110000000000000E-002    0.000000000000000E+000
 -2.100000000000000E-002    0.000000000000000E+000
 -2.090000000000000E-002    0.000000000000000E+000
 -2.080000000000000E-002    0.000000000000000E+000
 -2.070000000000000E-002    0.000000000000000E+000
 -2.060000000000000E-002    0.000000000000000E+000
 -2.050000000000000E-002    0.000000000000000E+000
 -2.040000000000000E-002    0.000000000000000E+000
 -2.030000000000000E-002    0.000000000000000E+000
 -2.020000000000000E-002    0.000000000000000E+000
 -2.010000000000000E-002    0.000000000000000E+000
 -2.000000000000000E-002    0.000000000000000E+000
 -1.990000000000000E-002    0.000000000000000E+000
 -1.980000000000000E-002    0.000000000000000E+000
 -1.970000000000000E-002    0.000000000000000E+000
 -1.960000000000000E-002    0.000000000000000E+000
 -1.950000000000000E-002   -2.138211768073757E-048
 -1.940000000000000E-002   -4.276423536147513E-048
 -1.930000000000000E-002   -1.289600815988899E-047
 -1.920000000000000E-002   -3.006843985592550E-047
 -1.910000000000000E-002   -7.082793855221978E-047
 -1.900000000000000E-002   -1.095159630318868E-046
 -1.890000000000000E-002   -1.460657757434800E-046
 -1.880000000000000E-002   -1.470545355536024E-046
 -1.870000000000000E-002   -9.866421204368905E-047
 -1.860000000000000E-002    5.431266191172057E-047
 -1.850000000000000E-002    2.652882038109074E-046
 -1.840000000000000E-002    5.879179205100548E-046
 -1.830000000000000E-002    1.068893869566191E-045
 -1.820000000000000E-002    1.608990721479121E-045
 -1.810000000000000E-002    2.097075898398879E-045
 -1.800000000000000E-002    2.259550170700544E-045
 -1.790000000000000E-002    2.134125628539592E-045
 -1.780000000000000E-002    1.436007377991960E-045
 -1.770000000000000E-002    4.393665137171451E-046
 -1.760000000000000E-002   -1.274577395088007E-045
 -1.750000000000000E-002   -3.542986034078736E-045
 -1.740000000000000E-002   -7.121259542926163E-045
 -1.730000000000000E-002   -1.039967098879826E-044
 -1.720000000000000E-002   -1.533613043745414E-044
 -1.710000000000000E-002   -2.003816108487830E-044
 -1.700000000000000E-002   -2.331507315878872E-044
 -1.690000000000000E-002   -2.520563696112888E-044
 -1.680000000000000E-002   -2.207611145561318E-044
 -1.670000000000000E-002   -1.330997985600989E-044
 -1.660000000000000E-002    3.041414721540445E-045
 -1.650000000000000E-002    2.992748245533391E-044
 -1.640000000000000E-002    6.710464555767360E-044
 -1.630000000000000E-002    1.127206875650559E-043
 -1.620000000000000E-002    1.656598718295282E-043
 -1.610000000000000E-002    2.178671392687650E-043
 -1.600000000000000E-002    2.601179222083743E-043
 -1.590000000000000E-002    2.775472037963383E-043
 -1.580000000000000E-002    2.521359455994037E-043
 -1.570000000000000E-002    1.635098552858795E-043
 -1.560000000000000E-002   -8.723512413750278E-045
 -1.550000000000000E-002   -2.783569159782366E-043
 -1.540000000000000E-002   -6.494331503729610E-043
 -1.530000000000000E-002   -1.109201569432240E-042
 -1.520000000000000E-002   -1.620120973220272E-042
 -1.510000000000000E-002   -2.113233254212868E-042
 -1.500000000000000E-002   -2.484229513007588E-042
 -1.490000000000000E-002   -2.592684765249823E-042
 -1.480000000000000E-002   -2.273242844510863E-042
 -1.470000000000000E-002   -1.350124620137935E-042
 -1.460000000000000E-002    3.316659690709934E-043
 -1.450000000000000E-002    2.865270833196356E-042
 -1.440000000000000E-002    6.230523715381615E-042
 -1.430000000000000E-002    1.024025110363484E-041
 -1.420000000000000E-002    1.448573140991154E-041
 -1.410000000000000E-002    1.830005362307308E-041
 -1.400000000000000E-002    2.075407132996247E-041
 -1.390000000000000E-002    2.069546210464041E-041
 -1.380000000000000E-002    1.685667664935917E-041
 -1.370000000000000E-002    8.034845866918198E-042
 -1.360000000000000E-002   -6.653468749720151E-042
 -1.350000000000000E-002   -2.745285785765608E-041
 -1.340000000000000E-002   -5.361598637182691E-041
 -1.330000000000000E-002   -8.306921872005151E-041
 -1.320000000000000E-002   -1.121658999657540E-040
 -1.310000000000000E-002   -1.356140654550328E-040
 -1.300000000000000E-002   -1.466750799273582E-040
 -1.290000000000000E-002   -1.377055594958057E-040
 -1.280000000000000E-002   -1.011053476986922E-040
 -1.270000000000000E-002   -3.066965739740669E-041
 -1.260000000000000E-002    7.672550723346800E-041
 -1.250000000000000E-002    2.192603533744372E-040
 -1.240000000000000E-002    3.883961936310125E-040
 -1.230000000000000E-002    5.675178124193355E-040
 -1.220000000000000E-002    7.314145455277958E-040
 -1.210000000000000E-002    8.469913200924726E-040
 -1.200000000000000E-002    8.755864594541307E-040
 -1.190000000000000E-002    7.770986660650669E-040
 -1.180000000000000E-002    5.159037568679331E-040
 -1.170000000000000E-002    6.825168382191450E-041
 -1.160000000000000E-002   -5.695401397272616E-040
 -1.150000000000000E-002   -1.373130239358496E-039
 -1.140000000000000E-002   -2.283770135551678E-039
 -1.130000000000000E-002   -3.205005966890872E-039
 -1.120000000000000E-002   -4.003987020432356E-039
 -1.110000000000000E-002   -4.518627776340127E-039
 -1.100000000000000E-002   -4.571377551333291E-039
 -1.090000000000000E-002   -3.989567628331975E-039
 -1.080000000000000E-002   -2.631364620776897E-039
 -1.070000000000000E-002   -4.152816362326870E-040
 -1.060000000000000E-002    2.649787382160514E-039
 -1.050000000000000E-002    6.437862525887901E-039
 -1.040000000000000E-002    1.068683367230430E-038
 -1.030000000000000E-002    1.499136523690319E-038
 -1.020000000000000E-002    1.881152933453899E-038
 -1.010000000000000E-002    2.149988017609298E-038
 -1.000000000000000E-002    2.234819507918298E-038
 -9.899999999999999E-003    2.065331714915279E-038
 -9.800000000000000E-003    1.579960335000147E-038
 -9.699999999999999E-003    7.353652146450753E-039
 -9.599999999999999E-003   -4.834828438820508E-039
 -9.500000000000000E-003   -2.053366973016077E-038
 -9.399999999999999E-003   -3.903955739473041E-038
 -9.299999999999999E-003   -5.911060788978020E-038
 -9.200000000000000E-003   -7.893226356951404E-038
 -9.099999999999999E-003   -9.613005174490047E-038
 -8.999999999999999E-003   -1.078437782467870E-037
 -8.900000000000000E-003   -1.108779153856502E-037
 -8.799999999999999E-003   -1.019410634773713E-037
 -8.699999999999999E-003   -7.798236307501532E-038
 -8.600000000000000E-003   -3.662387627635556E-038
 -8.499999999999999E-003    2.332642920364025E-038
 -8.399999999999999E-003    1.013147474538753E-037
 -8.300000000000000E-003    1.944905100927321E-037
 -8.199999999999999E-003    2.972423924805617E-037
 -8.100000000000000E-003    4.009172811265335E-037
 -8.000000000000000E-003    4.938263829876545E-037
 -7.899999999999999E-003    5.616351898275685E-037
 -7.800000000000000E-003    5.882076560658299E-037
 -7.699999999999999E-003    5.569266166176582E-037
 -7.599999999999999E-003    4.524473746981929E-037
 -7.499999999999999E-003    2.627662072400940E-037
 -7.399999999999999E-003   -1.858414380317396E-038
 -7.299999999999999E-003   -3.904485271642502E-037
 -7.199999999999999E-003   -8.423190605971623E-037
 -7.100000000000000E-003   -1.353163052844784E-036
 -6.999999999999999E-003   -1.890918773013038E-036
 -6.899999999999999E-003   -2.412634482958880E-036
 -6.800000000000000E-003   -2.865087669947277E-036
 -6.699999999999999E-003   -3.185630767410086E-036
 -6.599999999999999E-003   -3.303019083181274E-036
 -6.499999999999999E-003   -3.138159406104251E-036
 -6.399999999999999E-003   -2.605090202100726E-036
 -6.299999999999999E-003   -1.613065654065406E-036
 -6.199999999999999E-003   -7.128178336339851E-038
 -6.100000000000000E-003    2.101604376344657E-036
 -5.999999999999999E-003    4.960697625925789E-036
 -5.899999999999999E-003    8.508642298600176E-036
 -5.800000000000000E-003    1.265893032570772E-035
 -5.699999999999999E-003    1.718997039577948E-035
 -5.599999999999999E-003    2.169459529632429E-035
 -5.499999999999999E-003    2.553401955807669E-035
 -5.399999999999999E-003    2.780998466504191E-035
 -5.299999999999999E-003    2.737289189259315E-035
 -5.199999999999999E-003    2.288592293264789E-035
 -5.099999999999999E-003    1.296389107221857E-035
 -4.999999999999999E-003   -3.600592808416514E-036
 -4.899999999999999E-003   -2.752298400686416E-035
 -4.799999999999999E-003   -5.864219083974859E-035
 -4.699999999999999E-003   -9.550602580740957E-035
 -4.599999999999999E-003   -1.349928291788508E-034
 -4.499999999999999E-003   -1.720590636301849E-034
 -4.399999999999999E-003   -1.997189702013516E-034
 -4.299999999999999E-003   -2.093646770555323E-034
 -4.199999999999999E-003   -1.915175500689426E-034
 -4.099999999999999E-003   -1.370587483023776E-034
 -3.999999999999999E-003   -3.891834041301171E-035
 -3.899999999999999E-003    1.058900089536505E-034
 -3.799999999999999E-003    2.941084100704626E-034
 -3.699999999999999E-003    5.142742529967474E-034
 -3.599999999999999E-003    7.453727628342658E-034
 -3.499999999999999E-003    9.565589121065186E-034
 -3.399999999999999E-003    1.108383008656120E-033
 -3.299999999999999E-003    1.155848693203792E-033
 -3.199999999999999E-003    1.053434346960154E-033
 -3.099999999999999E-003    7.619250421635269E-034
 -2.999999999999999E-003    2.565538241648694E-034
 -2.899999999999999E-003   -4.644156604729863E-034
 -2.799999999999999E-003   -1.371870092985181E-033
 -2.699999999999999E-003   -2.400227100487328E-033
 -2.599999999999999E-003   -3.445512957957852E-033
 -2.499999999999999E-003   -4.368480429170100E-033
 -2.399999999999999E-003   -5.003690772326698E-033
 -2.299999999999999E-003   -5.174832815076074E-033
 -2.199999999999999E-003   -4.715693083134801E-033
 -2.099999999999999E-003   -3.495241958757317E-033
 -1.999999999999999E-003   -1.444379376984618E-033
 -1.899999999999999E-003    1.418851778950443E-033
 -1.799999999999999E-003    4.969190174149868E-033
 -1.699999999999999E-003    8.962778910838174E-033
 -1.599999999999999E-003    1.303752168824450E-032
 -1.499999999999999E-003    1.672720845226761E-032
 -1.399999999999999E-003    1.949008002433333E-032
 -1.299999999999999E-003    2.075099047916543E-032
 -1.199999999999999E-003    1.995487746728611E-032
 -1.099999999999999E-003    1.662808056986961E-032
 -9.999999999999989E-004    1.044339621887152E-032
 -8.999999999999990E-004    1.284567354926681E-033
 -7.999999999999990E-004   -1.069382704481640E-032
 -6.999999999999989E-004   -2.501469341172260E-032
 -5.999999999999990E-004   -4.083844402176950E-032
 -4.999999999999989E-004   -5.693862197614867E-032
 -3.999999999999989E-004   -7.169858352309023E-032
 -2.999999999999989E-004   -8.313707668440249E-032
 -1.999999999999989E-004   -8.897385947627814E-032
 -9.999999999999892E-005   -8.674951042427964E-032
  1.084202172485504E-018   -7.401510275089165E-032
  1.000000000000011E-004   -4.860586426278407E-032
  2.000000000000011E-004   -9.006300246271812E-033
  3.000000000000011E-004    4.519885027475159E-032
  4.000000000000011E-004    1.128133580151664E-031
  5.000000000000011E-004    1.905098605304109E-031
  6.000000000000011E-004    2.723831992988844E-031
  7.000000000000011E-004    3.496861803309985E-031
  8.000000000000011E-004    4.108779282585713E-031
  9.000000000000012E-004    4.421188178835530E-031
  1.000000000000001E-003    4.283272117483922E-031
  1.100000000000001E-003    3.548638604429733E-031
  1.200000000000001E-003    2.098282819906655E-031
  1.300000000000001E-003   -1.316022011663426E-032
  1.400000000000001E-003   -3.119570535173278E-031
  1.500000000000001E-003   -6.730592191249054E-031
  1.600000000000001E-003   -1.069459778729000E-030
  1.700000000000001E-003   -1.459775432666489E-030
  1.800000000000001E-003   -1.789232053936591E-030
  1.900000000000001E-003   -1.992989888489956E-030
  2.000000000000001E-003   -2.002074723364190E-030
  2.100000000000001E-003   -1.751859799092062E-030
  2.200000000000001E-003   -1.192619020459504E-030
  2.300000000000001E-003   -3.012128871204123E-031
  2.400000000000001E-003    9.074865379306181E-031
  2.500000000000001E-003    2.371186889115302E-030
  2.600000000000001E-003    3.974726944426653E-030
  2.700000000000001E-003    5.550472979931903E-030
  2.800000000000001E-003    6.886086690530772E-030
  2.900000000000001E-003    7.740515795268697E-030
  3.000000000000001E-003    7.868093530460221E-030
  3.100000000000001E-003    7.049463506321415E-030
  3.200000000000001E-003    5.126798395690754E-030
  3.300000000000001E-003    2.039634772201733E-030
  3.400000000000001E-003   -2.143233274055344E-030
  3.500000000000001E-003   -7.200767805290478E-030
  3.600000000000001E-003   -1.275039780890426E-029
  3.700000000000001E-003   -1.825636353930380E-029
  3.800000000000001E-003   -2.305815709150257E-029
  3.900000000000001E-003   -2.641945574272038E-029
  4.000000000000001E-003   -2.759565659247861E-029
  4.100000000000001E-003   -2.591565948243788E-029
  4.200000000000001E-003   -2.087142365502020E-029
  4.300000000000001E-003   -1.220720097956892E-029
  4.400000000000001E-003    5.743173318262090E-034
  4.500000000000001E-003    1.528177822115563E-029
  4.600000000000002E-003    3.273779516713694E-029
  4.700000000000001E-003    5.104031359268400E-029
  4.800000000000001E-003    6.846876681112373E-029
  4.900000000000002E-003    8.298945842376015E-029
  5.000000000000001E-003    9.237745452193951E-029
  5.100000000000001E-003    9.438028774432901E-029
  5.200000000000001E-003    8.692065924924874E-029
  5.300000000000002E-003    6.833288281998997E-029
  5.400000000000001E-003    3.762463938197787E-029
  5.500000000000001E-003   -5.248962099449499E-030
  5.600000000000002E-003   -5.911808625339512E-029
  5.700000000000001E-003   -1.213645847970953E-028
  5.800000000000001E-003   -1.877576470924578E-028
  5.900000000000002E-003   -2.524024508052085E-028
  6.000000000000001E-003   -3.078513508954771E-028
  6.100000000000001E-003   -3.454276442232599E-028
  6.200000000000002E-003   -3.558042815736077E-028
  6.300000000000002E-003   -3.298617695214104E-028
  6.400000000000001E-003   -2.598191660612503E-028
  6.500000000000001E-003   -1.405891302146882E-028
  6.600000000000002E-003    2.874369540337741E-029
  6.700000000000001E-003    2.434777869822509E-028
  6.800000000000001E-003    4.920930059147860E-028
  6.900000000000002E-003    7.555398701299170E-028
  7.000000000000001E-003    1.007280644638912E-027
  7.100000000000001E-003    1.214320721962017E-027
  7.200000000000002E-003    1.339401688509800E-027
  7.300000000000002E-003    1.344414734416997E-027
  7.400000000000001E-003    1.194935880623786E-027
  7.500000000000001E-003    8.655972862156628E-028
  7.600000000000002E-003    3.458090511076936E-028
  7.700000000000001E-003   -3.548375790765908E-028
  7.800000000000001E-003   -1.202290376480262E-027
  7.900000000000001E-003   -2.135740596897151E-027
  8.000000000000002E-003   -3.068124020893365E-027
  8.100000000000001E-003   -3.890051221597744E-027
  8.200000000000001E-003   -4.477498885889773E-027
  8.300000000000002E-003   -4.703174499471064E-027
  8.400000000000001E-003   -4.450969095127311E-027
  8.500000000000002E-003   -3.632390438185863E-027
  8.600000000000002E-003   -2.203391325425066E-027
  8.700000000000001E-003   -1.796265702273499E-028
  8.800000000000002E-003    2.352005430330838E-027
  8.900000000000002E-003    5.227637498982778E-027
  9.000000000000001E-003    8.208319913487981E-027
  9.100000000000002E-003    1.099072538939753E-026
  9.200000000000002E-003    1.322708191314119E-026
  9.300000000000001E-003    1.455377295878042E-026
  9.400000000000002E-003    1.462702375099116E-026
  9.500000000000001E-003    1.316309409748561E-026
  9.600000000000001E-003    9.979612151778402E-027
  9.700000000000002E-003    5.034084523128285E-027
  9.800000000000001E-003   -1.544579493385191E-027
  9.900000000000001E-003   -9.435579310343774E-027
  1.000000000000000E-002   -1.812034878328698E-026
  1.010000000000000E-002   -2.689404839831476E-026
  1.020000000000000E-002   -3.489616647366323E-026
  1.030000000000000E-002   -4.116075032713488E-026
  1.040000000000000E-002   -4.468547313400258E-026
  1.050000000000000E-002   -4.451728700108316E-026
  1.060000000000000E-002   -3.985103228367694E-026
  1.070000000000000E-002   -3.013577834398847E-026
  1.080000000000000E-002   -1.518203815326141E-026
  1.090000000000000E-002    4.738658521716227E-027
  1.100000000000000E-002    2.881207828026637E-026
  1.110000000000000E-002    5.562915972741289E-026
  1.120000000000000E-002    8.317626259565159E-026
  1.130000000000000E-002    1.088805653173971E-025
  1.140000000000000E-002    1.297222131974496E-025
  1.150000000000000E-002    1.424216466415380E-025
  1.160000000000000E-002    1.437049929264575E-025
  1.170000000000000E-002    1.306425030468425E-025
  1.180000000000000E-002    1.010447548036830E-025
  1.190000000000000E-002    5.388926773790239E-026
  1.200000000000000E-002   -1.026219019628056E-026
  1.210000000000000E-002   -8.890682480944549E-026
  1.220000000000000E-002   -1.773638891961374E-025
  1.230000000000000E-002   -2.687200312652433E-025
  1.240000000000000E-002   -3.540141492387079E-025
  1.250000000000000E-002   -4.227056770877552E-025
  1.260000000000000E-002   -4.634465593888000E-025
  1.270000000000000E-002   -4.651443582589671E-025
  1.280000000000000E-002   -4.182643760212722E-025
  1.290000000000000E-002   -3.162754745110633E-025
  1.300000000000000E-002   -1.571023945113576E-025
  1.310000000000000E-002    5.558581721586329E-026
  1.320000000000000E-002    3.114426356479779E-025
  1.330000000000000E-002    5.930572964115972E-025
  1.340000000000000E-002    8.762820494536118E-025
  1.350000000000000E-002    1.131391858078889E-024
  1.360000000000000E-002    1.325120966905775E-024
  1.370000000000000E-002    1.423526015216331E-024
  1.380000000000000E-002    1.395521164350608E-024
  1.390000000000000E-002    1.216820929505152E-024
  1.400000000000000E-002    8.739344482064853E-025
  1.410000000000000E-002    3.677817089574534E-025
  1.420000000000000E-002   -2.835288859542608E-025
  1.430000000000000E-002   -1.043208846185912E-024
  1.440000000000000E-002   -1.855968745985708E-024
  1.450000000000000E-002   -2.650136869815508E-024
  1.460000000000000E-002   -3.341827818298244E-024
  1.470000000000000E-002   -3.841081510483386E-024
  1.480000000000000E-002   -4.059685543621753E-024
  1.490000000000000E-002   -3.920187713966047E-024
  1.500000000000000E-002   -3.365429540889915E-024
  1.510000000000000E-002   -2.367782963011924E-024
  1.520000000000000E-002   -9.371920834845733E-025
  1.530000000000000E-002    8.728967399284423E-025
  1.540000000000000E-002    2.962581695324264E-024
  1.550000000000000E-002    5.186271597982803E-024
  1.560000000000000E-002    7.357710239926725E-024
  1.570000000000000E-002    9.259547553063045E-024
  1.580000000000000E-002    1.065742954535934E-023
  1.590000000000000E-002    1.131822311887449E-023
  1.600000000000000E-002    1.103159295362281E-023
  1.610000000000000E-002    9.633752788141151E-024
  1.620000000000000E-002    7.031784467082244E-024
  1.630000000000000E-002    3.226553737846799E-024
  1.640000000000000E-002   -1.668095845071578E-024
  1.650000000000000E-002   -7.412375610950776E-024
  1.660000000000000E-002   -1.363639982350416E-023
  1.670000000000000E-002   -1.984723102809981E-023
  1.680000000000000E-002   -2.544909558353412E-023
  1.690000000000000E-002   -2.977792915379577E-023
  1.700000000000000E-002   -3.215031545755468E-023
  1.710000000000000E-002   -3.192543287044030E-023
  1.720000000000000E-002   -2.857692084247975E-023
  1.730000000000000E-002   -2.176972342315802E-023
  1.740000000000000E-002   -1.143523730225274E-023
  1.750000000000000E-002    2.163447989253400E-024
  1.760000000000000E-002    1.838532954756366E-023
  1.770000000000000E-002    3.619359781570825E-023
  1.780000000000000E-002    5.417441204676386E-023
  1.790000000000000E-002    7.059862897739922E-023
  1.800000000000000E-002    8.352955084317990E-023
  1.810000000000000E-002    9.097515566561534E-023
  1.820000000000000E-002    9.107834829292934E-023
  1.830000000000000E-002    8.233291173565439E-023
  1.840000000000000E-002    6.380762388662219E-023
  1.850000000000000E-002    3.535653940013292E-023
  1.860000000000000E-002   -2.209561837983575E-024
  1.870000000000000E-002   -4.701607781999534E-023